
Host: luke-pc

Timers On : Fri Mar 16 17:12:37 2018
Timers Off: Fri Mar 16 17:12:37 2018

Wall Time:        0.14 seconds


-----------------------------------------------------------

***********************************************************
