
    -----------------------------------------------------------------------
          Psi4: An Open-Source Ab Initio Electronic Structure Package
                               Psi4 1.2a1.dev547 

                         Git: Rev {master} f5560a0 


    R. M. Parrish, L. A. Burns, D. G. A. Smith, A. C. Simmonett,
    A. E. DePrince III, E. G. Hohenstein, U. Bozkaya, A. Yu. Sokolov,
    R. Di Remigio, R. M. Richard, J. F. Gonthier, A. M. James,
    H. R. McAlexander, A. Kumar, M. Saitow, X. Wang, B. P. Pritchard,
    P. Verma, H. F. Schaefer III, K. Patkowski, R. A. King, E. F. Valeev,
    F. A. Evangelista, J. M. Turney, T. D. Crawford, and C. D. Sherrill,
    J. Chem. Theory Comput. 13(7) pp 3185--3197 (2017).
    (doi: 10.1021/acs.jctc.7b00174)

    -----------------------------------------------------------------------


    Psi4 started on: Friday, 17 November 2017 05:48PM

    Process ID:  27926
    PSIDATADIR: /home/luke/Projects/psi4_build/share/psi4
    Memory:     500.0 MiB
    Threads:    1
    
  ==> Input File <==

--------------------------------------------------------------------------

# PYTHONPATH must include directory above plugin directory.
#     Define either externally or here, then import plugin.
sys.path.insert(0, './..')
#import syshfwplug


#plugin_load("./syshfwplug.so")


molecule {
O       5.000000000000000      5.000000000000000      5.117780000000000
H       5.000000000000000      5.764450000000000      4.528860000000000
H       5.000000000000000      4.235550000000000      4.528860000000000
symmetry c1
}

set {
  basis def2-qzvp
}

#set syshfwplug {
#  pref mytest
#  do_tei 1
#  print 1
#}

set scf reference uhf
set scf_type pk
set scf PRINT_MOS  true


e_scf,ref_wfn = energy('scf',return_wfn=True)

#plugin("syshfwplug.so", ref_wfn)
#syshfwplug.exampleFN(ref_wfn)
--------------------------------------------------------------------------

*** tstart() called on luke-pc
*** at Fri Nov 17 17:48:37 2017

   => Loading Basis Set <=

    Name: DEF2-QZVP
    Role: ORBITAL
    Keyword: BASIS
    atoms 1   entry O          line   290 file /home/luke/Projects/psi4_build/share/psi4/basis/def2-qzvp.gbs 
    atoms 2-3 entry H          line    15 file /home/luke/Projects/psi4_build/share/psi4/basis/def2-qzvp.gbs 

    There are an even number of electrons - assuming singlet.
    Specify the multiplicity in the molecule input block.


         ---------------------------------------------------------
                                   SCF
            by Justin Turney, Rob Parrish, Andy Simmonett
                             and Daniel Smith
                              UHF Reference
                        1 Threads,    500 MiB Core
         ---------------------------------------------------------

  ==> Geometry <==

    Molecular point group: c1
    Full point group: C2v

    Geometry (in Angstrom), charge = 0, multiplicity = 1:

       Center              X                  Y                   Z               Mass       
    ------------   -----------------  -----------------  -----------------  -----------------
           O          0.000000000000    -0.000000000000     0.065908907168    15.994914619560
           H          0.000000000000     0.764450000000    -0.523011092832     1.007825032070
           H          0.000000000000    -0.764450000000    -0.523011092832     1.007825032070

  Running in c1 symmetry.

  Rotational constants: A =     27.15277  B =     14.31144  C =      9.37182 [cm^-1]
  Rotational constants: A = 814019.58833  B = 429046.03155  C = 280960.12664 [MHz]
  Nuclear repulsion =    9.120106912937080

  Charge       = 0
  Multiplicity = 1
  Electrons    = 10
  Nalpha       = 5
  Nbeta        = 5

  ==> Algorithm <==

  SCF Algorithm Type is PK.
  DIIS enabled.
  MOM disabled.
  Fractional occupation disabled.
  Guess Type is GWH.
  Energy threshold   = 1.00e-06
  Density threshold  = 1.00e-06
  Integral threshold = 0.00e+00

  ==> Primary Basis <==

  Basis Set: DEF2-QZVP
    Blend: DEF2-QZVP
    Number of shells: 37
    Number of basis function: 117
    Number of Cartesian functions: 142
    Spherical Harmonics?: true
    Max angular momentum: 4

  ==> Pre-Iterations <==

   -------------------------------------------------------
    Irrep   Nso     Nmo     Nalpha   Nbeta   Ndocc  Nsocc
   -------------------------------------------------------
     A        117     117       0       0       0       0
   -------------------------------------------------------
    Total     117     117       5       5       5       0
   -------------------------------------------------------

  ==> Integral Setup <==

  Using integral reordering PK algorithm.
  Sizing the integral batches needed.
  Building batch lookup table.
   Calculation information:
      Number of atoms:                   3
      Number of AO shells:              37
      Number of primitives:             55
      Number of atomic orbitals:       142
      Number of basis functions:       117

      Integral cutoff                 1.00e-12
      Number of threads:                 1

	Batch   1 pq = [       0,    6903] index = [             0,23829156] size =     23829156
  Task number: 3
  Buffer size: 11059200
  Buffer per thread: 2
  We computed 288986 shell quartets total.
  Whereas there are 247456 unique shell quartets.
    16.78 percent of shell quartets recomputed by reordering.
  ==> DiskJK: Disk-Based J/K Matrices <==

    J tasked:                  Yes
    K tasked:                  Yes
    wK tasked:                  No
    Memory (MB):               375
    Schwarz Cutoff:          1E-12

    OpenMP threads:              1
  Minimum eigenvalue in the overlap matrix is 3.2463547313E-04.
  Using Symmetric Orthogonalization.

  SCF Guess: Generalized Wolfsberg-Helmholtz.

  ==> Iterations <==

                        Total Energy        Delta E     RMS |[F,P]|

   @UHF iter   1:   -51.69173510333611   -5.16917e+01   2.06748e-01 
   @UHF iter   2:   -66.57947480474046   -1.48877e+01   2.67658e-02 DIIS
   @UHF iter   3:   -71.82203339122844   -5.24256e+00   3.43576e-02 DIIS
   @UHF iter   4:   -75.12496692139061   -3.30293e+00   1.41807e-02 DIIS
   @UHF iter   5:   -76.02152906092246   -8.96562e-01   2.54983e-03 DIIS
   @UHF iter   6:   -76.06559982697068   -4.40708e-02   2.75263e-04 DIIS
   @UHF iter   7:   -76.06604229474104   -4.42468e-04   1.24050e-04 DIIS
   @UHF iter   8:   -76.06612155488160   -7.92601e-05   1.46939e-05 DIIS
   @UHF iter   9:   -76.06612396105254   -2.40617e-06   2.47439e-06 DIIS
   @UHF iter  10:   -76.06612406913825   -1.08086e-07   5.34062e-07 DIIS

  ==> Post-Iterations <==

   @Spin Contamination Metric:   1.421085472E-14
   @S^2 Expected:                0.000000000E+00
   @S^2 Observed:                1.421085472E-14
   @S   Expected:                0.000000000E+00
   @S   Observed:                0.000000000E+00

    Orbital Energies (a.u.)
    -----------------------

    Alpha Occupied:                                                       

       1A    -20.564408     2A     -1.347639     3A     -0.713134  
       4A     -0.582072     5A     -0.509148  

    Alpha Virtual:                                                        

       6A      0.103861     7A      0.147987     8A      0.341725  
       9A      0.377892    10A      0.386965    11A      0.449850  
      12A      0.529606    13A      0.591788    14A      0.654003  
      15A      0.713473    16A      0.751273    17A      0.899486  
      18A      1.033301    19A      1.045578    20A      1.155591  
      21A      1.208854    22A      1.466344    23A      1.483953  
      24A      1.489916    25A      1.554409    26A      1.592156  
      27A      1.643719    28A      1.984438    29A      2.069562  
      30A      2.175315    31A      2.189833    32A      2.287679  
      33A      2.442960    34A      2.476695    35A      2.493128  
      36A      2.522807    37A      2.577652    38A      2.700061  
      39A      2.740161    40A      2.836425    41A      2.882126  
      42A      3.073895    43A      3.155536    44A      3.330160  
      45A      3.358307    46A      3.531031    47A      3.990253  
      48A      4.127393    49A      4.153449    50A      4.174092  
      51A      4.346398    52A      4.414448    53A      4.529215  
      54A      4.534150    55A      4.718526    56A      4.903992  
      57A      5.094037    58A      5.117411    59A      5.632197  
      60A      5.672529    61A      5.677767    62A      5.988884  
      63A      6.190793    64A      6.238986    65A      6.322563  
      66A      6.692235    67A      6.795170    68A      7.049225  
      69A      7.337922    70A      7.392197    71A      7.433791  
      72A      7.449554    73A      7.546017    74A      7.665245  
      75A      7.678436    76A      7.680378    77A      7.799804  
      78A      8.005517    79A      8.110371    80A      8.154060  
      81A      8.164692    82A      8.204210    83A      8.315234  
      84A      8.396896    85A      8.619265    86A      8.835669  
      87A      8.924166    88A      9.094184    89A      9.110763  
      90A      9.371853    91A      9.393902    92A     10.262212  
      93A     10.263604    94A     10.676978    95A     10.740591  
      96A     11.166493    97A     11.178701    98A     11.379876  
      99A     11.519305   100A     11.608916   101A     11.843333  
     102A     11.966168   103A     12.248018   104A     12.276087  
     105A     12.345867   106A     12.399811   107A     12.713669  
     108A     13.331790   109A     13.983732   110A     14.086435  
     111A     14.161763   112A     14.585570   113A     14.948145  
     114A     17.156237   115A     17.156895   116A     49.506445  
     117A    256.343041  

    Beta Occupied:                                                        

       1A    -20.564408     2A     -1.347639     3A     -0.713134  
       4A     -0.582072     5A     -0.509148  

    Beta Virtual:                                                         

       6A      0.103861     7A      0.147987     8A      0.341725  
       9A      0.377892    10A      0.386965    11A      0.449850  
      12A      0.529606    13A      0.591788    14A      0.654003  
      15A      0.713473    16A      0.751273    17A      0.899486  
      18A      1.033301    19A      1.045578    20A      1.155591  
      21A      1.208854    22A      1.466344    23A      1.483953  
      24A      1.489916    25A      1.554409    26A      1.592156  
      27A      1.643719    28A      1.984438    29A      2.069562  
      30A      2.175315    31A      2.189833    32A      2.287679  
      33A      2.442960    34A      2.476695    35A      2.493128  
      36A      2.522807    37A      2.577652    38A      2.700061  
      39A      2.740161    40A      2.836425    41A      2.882126  
      42A      3.073895    43A      3.155536    44A      3.330160  
      45A      3.358307    46A      3.531031    47A      3.990253  
      48A      4.127393    49A      4.153449    50A      4.174092  
      51A      4.346398    52A      4.414448    53A      4.529215  
      54A      4.534150    55A      4.718526    56A      4.903992  
      57A      5.094037    58A      5.117411    59A      5.632197  
      60A      5.672529    61A      5.677767    62A      5.988884  
      63A      6.190793    64A      6.238986    65A      6.322563  
      66A      6.692235    67A      6.795170    68A      7.049225  
      69A      7.337922    70A      7.392197    71A      7.433791  
      72A      7.449554    73A      7.546017    74A      7.665245  
      75A      7.678436    76A      7.680378    77A      7.799804  
      78A      8.005517    79A      8.110371    80A      8.154060  
      81A      8.164692    82A      8.204210    83A      8.315234  
      84A      8.396896    85A      8.619265    86A      8.835669  
      87A      8.924166    88A      9.094184    89A      9.110763  
      90A      9.371853    91A      9.393902    92A     10.262212  
      93A     10.263604    94A     10.676978    95A     10.740591  
      96A     11.166493    97A     11.178701    98A     11.379876  
      99A     11.519305   100A     11.608916   101A     11.843333  
     102A     11.966168   103A     12.248018   104A     12.276087  
     105A     12.345867   106A     12.399811   107A     12.713669  
     108A     13.331790   109A     13.983732   110A     14.086435  
     111A     14.161763   112A     14.585570   113A     14.948145  
     114A     17.156237   115A     17.156895   116A     49.506445  
     117A    256.343041  

    Final Occupation by Irrep:
              A 
    DOCC [     5 ]
    SOCC [     0 ]

  Energy converged.

  @UHF Final Energy:   -76.06612406913825

   => Energetics <=

    Nuclear Repulsion Energy =              9.1201069129370804
    One-Electron Energy =                -122.9398555530468968
    Two-Electron Energy =                  37.7536245709715601
    Total Energy =                        -76.0661240691382545


  UHF NO Occupations:
  HONO-2 :    3  A 2.0000000
  HONO-1 :    4  A 2.0000000
  HONO-0 :    5  A 2.0000000
  LUNO+0 :    6  A 0.0000000
  LUNO+1 :    7  A 0.0000000
  LUNO+2 :    8  A 0.0000000
  LUNO+3 :    9  A 0.0000000



Properties will be evaluated at   0.000000,   0.000000,   0.000000 Bohr

Properties computed using the SCF density matrix

  Nuclear Dipole Moment: (a.u.)
     X:     0.0000      Y:     0.0000      Z:    -0.9803

  Electronic Dipole Moment: (a.u.)
     X:    -0.0000      Y:     0.0000      Z:     0.1863

  Dipole Moment: (a.u.)
     X:    -0.0000      Y:     0.0000      Z:    -0.7940     Total:     0.7940

  Dipole Moment: (Debye)
     X:    -0.0000      Y:     0.0000      Z:    -2.0182     Total:     2.0182


  ==> Alpha-Spin Molecular Orbitals <==

                            1            2            3            4            5

 1    O1 s0         0.5605019    0.1157016   -0.0000000    0.0375850    0.0000000
 2    O1 s0        -0.0000224    0.0176321   -0.0000000    0.0059037   -0.0000000
 3    O1 s0         0.3660815    0.1425254   -0.0000000    0.0484184    0.0000000
 4    O1 s0         0.1625729    0.0704428   -0.0000000    0.0209566    0.0000000
 5    O1 s0         0.0138557   -0.2805326   -0.0000000   -0.0952905   -0.0000000
 6    O1 s0        -0.0085454   -0.4877319    0.0000000   -0.2066839    0.0000000
 7    O1 s0        -0.0035464   -0.1998170    0.0000000   -0.2481426    0.0000000
 8    O1 p0        -0.0022411    0.0417388    0.0000000   -0.3030656   -0.0000000
 9    O1 p+1        0.0000000    0.0000000    0.0000000   -0.0000000    0.3449377
 10   O1 p-1        0.0000000    0.0000000    0.2741448    0.0000000   -0.0000000
 11   O1 p0         0.0033389    0.0495014   -0.0000000   -0.2958029   -0.0000000
 12   O1 p+1       -0.0000000    0.0000000    0.0000000   -0.0000000    0.3395136
 13   O1 p-1       -0.0000000   -0.0000000    0.2675199    0.0000000   -0.0000000
 14   O1 p0         0.0026171    0.0318734   -0.0000000   -0.2392962   -0.0000000
 15   O1 p+1       -0.0000000   -0.0000000    0.0000000   -0.0000000    0.3165686
 16   O1 p-1       -0.0000000   -0.0000000    0.2082162    0.0000000    0.0000000
 17   O1 p0         0.0003334    0.0031637   -0.0000000   -0.1212524   -0.0000000
 18   O1 p+1       -0.0000000   -0.0000000    0.0000000   -0.0000000    0.1787497
 19   O1 p-1        0.0000000   -0.0000000    0.0522834    0.0000000    0.0000000
 20   O1 d0         0.0000731   -0.0002494    0.0000000    0.0021482    0.0000000
 21   O1 d+1       -0.0000000    0.0000000    0.0000000    0.0000000   -0.0020800
 22   O1 d-1       -0.0000000   -0.0000000   -0.0049531    0.0000000   -0.0000000
 23   O1 d+2       -0.0002201    0.0008234    0.0000000   -0.0016546    0.0000000
 24   O1 d-2       -0.0000000   -0.0000000   -0.0000000    0.0000000    0.0000000
 25   O1 d0        -0.0002723   -0.0018049   -0.0000000    0.0080623   -0.0000000
 26   O1 d+1        0.0000000   -0.0000000   -0.0000000   -0.0000000   -0.0075705
 27   O1 d-1        0.0000000    0.0000000   -0.0185656   -0.0000000   -0.0000000
 28   O1 d+2        0.0008369    0.0069384   -0.0000000   -0.0036121   -0.0000000
 29   O1 d-2       -0.0000000    0.0000000    0.0000000   -0.0000000   -0.0000000
 30   O1 d0        -0.0003905   -0.0019614    0.0000000    0.0098152    0.0000000
 31   O1 d+1        0.0000000   -0.0000000   -0.0000000    0.0000000   -0.0124232
 32   O1 d-1        0.0000000    0.0000000   -0.0176998   -0.0000000   -0.0000000
 33   O1 d+2        0.0012854    0.0050176   -0.0000000   -0.0017512   -0.0000000
 34   O1 d-2        0.0000000    0.0000000   -0.0000000    0.0000000   -0.0000000
 35   O1 f0         0.0000222   -0.0005051   -0.0000000    0.0000691    0.0000000
 36   O1 f+1        0.0000000   -0.0000000   -0.0000000    0.0000000    0.0004983
 37   O1 f-1        0.0000000   -0.0000000    0.0006027   -0.0000000   -0.0000000
 38   O1 f+2        0.0000477   -0.0012436   -0.0000000    0.0015740    0.0000000
 39   O1 f-2        0.0000000   -0.0000000   -0.0000000    0.0000000   -0.0000000
 40   O1 f+3       -0.0000000   -0.0000000    0.0000000   -0.0000000   -0.0012971
 41   O1 f-3       -0.0000000    0.0000000   -0.0015609    0.0000000   -0.0000000
 42   O1 f0        -0.0002794   -0.0009469    0.0000000   -0.0006031    0.0000000
 43   O1 f+1       -0.0000000    0.0000000    0.0000000    0.0000000    0.0009596
 44   O1 f-1       -0.0000000    0.0000000    0.0004700    0.0000000    0.0000000
 45   O1 f+2       -0.0008351   -0.0029912    0.0000000    0.0008295    0.0000000
 46   O1 f-2       -0.0000000   -0.0000000    0.0000000    0.0000000    0.0000000
 47   O1 f+3        0.0000000    0.0000000   -0.0000000   -0.0000000   -0.0026932
 48   O1 f-3        0.0000000    0.0000000   -0.0029768   -0.0000000    0.0000000
 49   O1 g0         0.0000965    0.0001671   -0.0000000    0.0000188   -0.0000000
 50   O1 g+1        0.0000000   -0.0000000   -0.0000000   -0.0000000   -0.0000246
 51   O1 g-1       -0.0000000   -0.0000000    0.0003220   -0.0000000   -0.0000000
 52   O1 g+2        0.0001586    0.0003335   -0.0000000   -0.0001185   -0.0000000
 53   O1 g-2        0.0000000    0.0000000    0.0000000   -0.0000000   -0.0000000
 54   O1 g+3        0.0000000   -0.0000000    0.0000000    0.0000000    0.0002988
 55   O1 g-3       -0.0000000   -0.0000000    0.0004977    0.0000000   -0.0000000
 56   O1 g+4       -0.0000416   -0.0001138    0.0000000   -0.0000422    0.0000000
 57   O1 g-4       -0.0000000   -0.0000000    0.0000000    0.0000000    0.0000000
 58   H2 s0        -0.0001508   -0.0509560    0.0803180    0.0479172    0.0000000
 59   H2 s0         0.0039329   -0.0787242    0.1550331    0.1062748   -0.0000000
 60   H2 s0         0.0021984   -0.0254799    0.1480867    0.1171891   -0.0000000
 61   H2 s0        -0.0000524   -0.0025100    0.0225219    0.0043730    0.0000000
 62   H2 p0         0.0000363   -0.0036581    0.0047804   -0.0005134    0.0000000
 63   H2 p+1       -0.0000000    0.0000000    0.0000000    0.0000000    0.0040896
 64   H2 p-1        0.0000307    0.0053630   -0.0036737   -0.0037863   -0.0000000
 65   H2 p0         0.0011889   -0.0058987    0.0148341   -0.0004758   -0.0000000
 66   H2 p+1       -0.0000000   -0.0000000   -0.0000000   -0.0000000    0.0134987
 67   H2 p-1       -0.0018792    0.0089736   -0.0108528   -0.0159716    0.0000000
 68   H2 p0         0.0007195   -0.0010464    0.0136003   -0.0111487   -0.0000000
 69   H2 p+1        0.0000000   -0.0000000   -0.0000000   -0.0000000    0.0303949
 70   H2 p-1       -0.0010635    0.0035553   -0.0092095   -0.0215656    0.0000000
 71   H2 d0        -0.0000162   -0.0000305    0.0007560   -0.0009120   -0.0000000
 72   H2 d+1        0.0000000   -0.0000000   -0.0000000    0.0000000    0.0011043
 73   H2 d-1       -0.0002143    0.0016857   -0.0022394   -0.0010883    0.0000000
 74   H2 d+2       -0.0001614    0.0012228   -0.0008837   -0.0014886    0.0000000
 75   H2 d-2        0.0000000    0.0000000    0.0000000    0.0000000   -0.0013361
 76   H2 d0        -0.0000999    0.0001601    0.0018791   -0.0042353    0.0000000
 77   H2 d+1       -0.0000000   -0.0000000   -0.0000000   -0.0000000    0.0040681
 78   H2 d-1       -0.0004757    0.0002966   -0.0036048    0.0007802    0.0000000
 79   H2 d+2       -0.0004507    0.0004696   -0.0012908   -0.0045078    0.0000000
 80   H2 d-2       -0.0000000    0.0000000    0.0000000    0.0000000   -0.0062623
 81   H2 f0        -0.0000660    0.0000782   -0.0001594   -0.0004280    0.0000000
 82   H2 f+1        0.0000000    0.0000000   -0.0000000    0.0000000    0.0003148
 83   H2 f-1        0.0000576    0.0001673   -0.0006520    0.0006828    0.0000000
 84   H2 f+2       -0.0000421    0.0002248   -0.0006458   -0.0002676    0.0000000
 85   H2 f-2       -0.0000000    0.0000000    0.0000000    0.0000000   -0.0010151
 86   H2 f+3       -0.0000000    0.0000000    0.0000000    0.0000000   -0.0009164
 87   H2 f-3        0.0000595   -0.0001427    0.0002320    0.0006212    0.0000000
 88   H3 s0        -0.0001508   -0.0509560   -0.0803180    0.0479172    0.0000000
 89   H3 s0         0.0039329   -0.0787242   -0.1550331    0.1062748   -0.0000000
 90   H3 s0         0.0021984   -0.0254799   -0.1480867    0.1171891   -0.0000000
 91   H3 s0        -0.0000524   -0.0025100   -0.0225219    0.0043730    0.0000000
 92   H3 p0         0.0000363   -0.0036581   -0.0047804   -0.0005134    0.0000000
 93   H3 p+1       -0.0000000   -0.0000000   -0.0000000   -0.0000000    0.0040896
 94   H3 p-1       -0.0000307   -0.0053630   -0.0036737    0.0037863    0.0000000
 95   H3 p0         0.0011889   -0.0058987   -0.0148341   -0.0004758   -0.0000000
 96   H3 p+1        0.0000000    0.0000000   -0.0000000   -0.0000000    0.0134987
 97   H3 p-1        0.0018792   -0.0089736   -0.0108528    0.0159716   -0.0000000
 98   H3 p0         0.0007195   -0.0010464   -0.0136003   -0.0111487   -0.0000000
 99   H3 p+1        0.0000000    0.0000000    0.0000000    0.0000000    0.0303949
 100  H3 p-1        0.0010635   -0.0035553   -0.0092095    0.0215656   -0.0000000
 101  H3 d0        -0.0000162   -0.0000305   -0.0007560   -0.0009120   -0.0000000
 102  H3 d+1       -0.0000000    0.0000000    0.0000000   -0.0000000    0.0011043
 103  H3 d-1        0.0002143   -0.0016857   -0.0022394    0.0010883   -0.0000000
 104  H3 d+2       -0.0001614    0.0012228    0.0008837   -0.0014886    0.0000000
 105  H3 d-2       -0.0000000    0.0000000    0.0000000   -0.0000000    0.0013361
 106  H3 d0        -0.0000999    0.0001601   -0.0018791   -0.0042353   -0.0000000
 107  H3 d+1        0.0000000    0.0000000    0.0000000   -0.0000000    0.0040681
 108  H3 d-1        0.0004757   -0.0002966   -0.0036048   -0.0007802   -0.0000000
 109  H3 d+2       -0.0004507    0.0004696    0.0012908   -0.0045078    0.0000000
 110  H3 d-2        0.0000000    0.0000000   -0.0000000   -0.0000000    0.0062623
 111  H3 f0        -0.0000660    0.0000782    0.0001594   -0.0004280   -0.0000000
 112  H3 f+1        0.0000000   -0.0000000    0.0000000   -0.0000000    0.0003148
 113  H3 f-1       -0.0000576   -0.0001673   -0.0006520   -0.0006828   -0.0000000
 114  H3 f+2       -0.0000421    0.0002248    0.0006458   -0.0002676    0.0000000
 115  H3 f-2       -0.0000000    0.0000000   -0.0000000   -0.0000000    0.0010151
 116  H3 f+3       -0.0000000   -0.0000000    0.0000000    0.0000000   -0.0009164
 117  H3 f-3       -0.0000595    0.0001427    0.0002320   -0.0006212    0.0000000

            Ene   -20.5644080   -1.3476394   -0.7131344   -0.5820723   -0.5091477
            Sym             A            A            A            A            A
            Occ             1            1            1            1            1


                            6            7            8            9           10

 1    O1 s0         0.0282711    0.0000000    0.0205487    0.0000000   -0.0000000
 2    O1 s0         0.0060136    0.0000000    0.0040531   -0.0000000   -0.0000000
 3    O1 s0         0.0312038    0.0000000    0.0244420    0.0000000   -0.0000000
 4    O1 s0         0.0325072   -0.0000000    0.0177825    0.0000000   -0.0000000
 5    O1 s0        -0.1500576    0.0000000    0.0127324   -0.0000000    0.0000000
 6    O1 s0         0.2386322   -0.0000000   -0.6505343   -0.0000000   -0.0000000
 7    O1 s0        -1.0801213   -0.0000000   -5.1026969   -0.0000000   -0.0000000
 8    O1 p0         0.0708803   -0.0000000   -0.1166409   -0.0000000    0.0000000
 9    O1 p+1       -0.0000000    0.0000000   -0.0000000    0.1914347    0.0000000
 10   O1 p-1       -0.0000000    0.0962542   -0.0000000   -0.0000000    0.0329031
 11   O1 p0         0.0184995    0.0000000    0.0815896    0.0000000    0.0000000
 12   O1 p+1       -0.0000000   -0.0000000   -0.0000000    0.0134192    0.0000000
 13   O1 p-1        0.0000000    0.0988046    0.0000000   -0.0000000    0.2593736
 14   O1 p0         0.1415017    0.0000000    0.4868499    0.0000000    0.0000000
 15   O1 p+1       -0.0000000    0.0000000   -0.0000000    0.9776093    0.0000000
 16   O1 p-1        0.0000000   -0.3940510    0.0000000   -0.0000000    0.9337600
 17   O1 p0         0.1101207    0.0000000    2.3913973    0.0000000   -0.0000000
 18   O1 p+1       -0.0000000    0.0000000    0.0000000   -1.4894024   -0.0000000
 19   O1 p-1        0.0000000    0.8133400    0.0000000   -0.0000000    2.4454907
 20   O1 d0        -0.0005162   -0.0000000   -0.0041595    0.0000000    0.0000000
 21   O1 d+1        0.0000000    0.0000000   -0.0000000    0.0035806    0.0000000
 22   O1 d-1        0.0000000   -0.0029013    0.0000000   -0.0000000    0.0061127
 23   O1 d+2        0.0005224   -0.0000000   -0.0002132    0.0000000   -0.0000000
 24   O1 d-2       -0.0000000    0.0000000    0.0000000    0.0000000    0.0000000
 25   O1 d0        -0.0002460    0.0000000    0.0242330   -0.0000000   -0.0000000
 26   O1 d+1       -0.0000000    0.0000000    0.0000000   -0.0250019   -0.0000000
 27   O1 d-1       -0.0000000    0.0160870   -0.0000000    0.0000000   -0.0228308
 28   O1 d+2       -0.0118483    0.0000000    0.0030541    0.0000000    0.0000000
 29   O1 d-2        0.0000000   -0.0000000   -0.0000000   -0.0000000   -0.0000000
 30   O1 d0         0.0006939   -0.0000000   -0.0281620   -0.0000000   -0.0000000
 31   O1 d+1        0.0000000    0.0000000    0.0000000   -0.0465562   -0.0000000
 32   O1 d-1       -0.0000000    0.1191304   -0.0000000    0.0000000   -0.4129358
 33   O1 d+2        0.0316819    0.0000000    0.3044866    0.0000000    0.0000000
 34   O1 d-2        0.0000000   -0.0000000    0.0000000   -0.0000000   -0.0000000
 35   O1 f0         0.0018570    0.0000000   -0.0000605    0.0000000    0.0000000
 36   O1 f+1       -0.0000000    0.0000000    0.0000000   -0.0005648   -0.0000000
 37   O1 f-1       -0.0000000    0.0003239   -0.0000000    0.0000000   -0.0004990
 38   O1 f+2        0.0040810    0.0000000   -0.0017730   -0.0000000    0.0000000
 39   O1 f-2       -0.0000000    0.0000000    0.0000000   -0.0000000    0.0000000
 40   O1 f+3       -0.0000000   -0.0000000    0.0000000    0.0013775    0.0000000
 41   O1 f-3        0.0000000   -0.0010996    0.0000000    0.0000000   -0.0018201
 42   O1 f0        -0.0065104   -0.0000000   -0.0292529    0.0000000   -0.0000000
 43   O1 f+1       -0.0000000   -0.0000000   -0.0000000    0.0133444    0.0000000
 44   O1 f-1        0.0000000   -0.0088186    0.0000000   -0.0000000    0.0578556
 45   O1 f+2       -0.0151348   -0.0000000   -0.0338932   -0.0000000   -0.0000000
 46   O1 f-2       -0.0000000   -0.0000000    0.0000000    0.0000000    0.0000000
 47   O1 f+3        0.0000000    0.0000000    0.0000000   -0.0372174   -0.0000000
 48   O1 f-3       -0.0000000    0.0157613   -0.0000000    0.0000000   -0.0085060
 49   O1 g0         0.0005249    0.0000000    0.0016077   -0.0000000    0.0000000
 50   O1 g+1        0.0000000   -0.0000000    0.0000000    0.0006864   -0.0000000
 51   O1 g-1       -0.0000000   -0.0014685   -0.0000000    0.0000000   -0.0054908
 52   O1 g+2        0.0007873    0.0000000    0.0003522    0.0000000    0.0000000
 53   O1 g-2       -0.0000000    0.0000000   -0.0000000   -0.0000000   -0.0000000
 54   O1 g+3       -0.0000000   -0.0000000   -0.0000000    0.0087152    0.0000000
 55   O1 g-3        0.0000000   -0.0017243    0.0000000   -0.0000000    0.0013880
 56   O1 g+4       -0.0009751   -0.0000000   -0.0028059   -0.0000000   -0.0000000
 57   O1 g-4        0.0000000    0.0000000   -0.0000000    0.0000000    0.0000000
 58   H2 s0         0.0027038    0.0002069    0.0105824    0.0000000   -0.0403116
 59   H2 s0         0.1118180    0.0862902    0.1791432    0.0000000   -0.2479861
 60   H2 s0        -0.1815037    0.5165514    3.2859021    0.0000000   -3.0481972
 61   H2 s0         0.9430377   -2.3338012   -0.1405854    0.0000000   -0.2499820
 62   H2 p0         0.0041807   -0.0058316   -0.0095293   -0.0000000    0.0133040
 63   H2 p+1       -0.0000000    0.0000000   -0.0000000    0.0112940   -0.0000000
 64   H2 p-1       -0.0034349    0.0047422    0.0035349    0.0000000   -0.0210755
 65   H2 p0        -0.0261838    0.0674969    0.1058915    0.0000000   -0.0878867
 66   H2 p+1        0.0000000   -0.0000000    0.0000000   -0.0668127   -0.0000000
 67   H2 p-1        0.0356815   -0.0684931   -0.0717266   -0.0000000    0.1794321
 68   H2 p0         0.0198723    0.0611474    0.5416428    0.0000000   -0.3728091
 69   H2 p+1        0.0000000    0.0000000    0.0000000    0.0244767    0.0000000
 70   H2 p-1       -0.0075809   -0.0856321   -0.7858606   -0.0000000    0.5457298
 71   H2 d0         0.0004323    0.0002705   -0.0000711   -0.0000000    0.0012240
 72   H2 d+1        0.0000000   -0.0000000    0.0000000    0.0006594    0.0000000
 73   H2 d-1       -0.0003558   -0.0016879    0.0018443   -0.0000000    0.0022563
 74   H2 d+2        0.0010171   -0.0016087   -0.0013565   -0.0000000    0.0004162
 75   H2 d-2       -0.0000000    0.0000000   -0.0000000   -0.0016633   -0.0000000
 76   H2 d0         0.0022922    0.0085581    0.0295062   -0.0000000    0.0317855
 77   H2 d+1        0.0000000    0.0000000    0.0000000   -0.0339046   -0.0000000
 78   H2 d-1        0.0305437   -0.0228944   -0.1258958   -0.0000000    0.1024325
 79   H2 d+2        0.0177881   -0.0066837   -0.0556928   -0.0000000    0.0963646
 80   H2 d-2       -0.0000000   -0.0000000   -0.0000000    0.0465666    0.0000000
 81   H2 f0         0.0030996    0.0005226   -0.0035133   -0.0000000    0.0117951
 82   H2 f+1        0.0000000    0.0000000   -0.0000000   -0.0032323   -0.0000000
 83   H2 f-1        0.0020045   -0.0016058   -0.0098852   -0.0000000   -0.0002547
 84   H2 f+2        0.0060254   -0.0006683   -0.0131343   -0.0000000    0.0127929
 85   H2 f-2       -0.0000000   -0.0000000   -0.0000000    0.0069881   -0.0000000
 86   H2 f+3        0.0000000   -0.0000000   -0.0000000    0.0058552   -0.0000000
 87   H2 f-3       -0.0031693   -0.0002340    0.0054196    0.0000000   -0.0095217
 88   H3 s0         0.0027038   -0.0002069    0.0105824   -0.0000000    0.0403116
 89   H3 s0         0.1118180   -0.0862902    0.1791432   -0.0000000    0.2479861
 90   H3 s0        -0.1815037   -0.5165514    3.2859021   -0.0000000    3.0481972
 91   H3 s0         0.9430377    2.3338012   -0.1405854   -0.0000000    0.2499820
 92   H3 p0         0.0041807    0.0058316   -0.0095293    0.0000000   -0.0133040
 93   H3 p+1       -0.0000000    0.0000000   -0.0000000    0.0112940    0.0000000
 94   H3 p-1        0.0034349    0.0047422   -0.0035349    0.0000000   -0.0210755
 95   H3 p0        -0.0261838   -0.0674969    0.1058915   -0.0000000    0.0878867
 96   H3 p+1       -0.0000000    0.0000000    0.0000000   -0.0668127   -0.0000000
 97   H3 p-1       -0.0356815   -0.0684931    0.0717266   -0.0000000    0.1794321
 98   H3 p0         0.0198723   -0.0611474    0.5416428   -0.0000000    0.3728091
 99   H3 p+1        0.0000000   -0.0000000    0.0000000    0.0244767   -0.0000000
 100  H3 p-1        0.0075809   -0.0856321    0.7858606   -0.0000000    0.5457298
 101  H3 d0         0.0004323   -0.0002705   -0.0000711    0.0000000   -0.0012240
 102  H3 d+1       -0.0000000   -0.0000000    0.0000000    0.0006594    0.0000000
 103  H3 d-1        0.0003558   -0.0016879   -0.0018443   -0.0000000    0.0022563
 104  H3 d+2        0.0010171    0.0016087   -0.0013565    0.0000000   -0.0004162
 105  H3 d-2       -0.0000000    0.0000000    0.0000000    0.0016633    0.0000000
 106  H3 d0         0.0022922   -0.0085581    0.0295062    0.0000000   -0.0317855
 107  H3 d+1        0.0000000    0.0000000    0.0000000   -0.0339046   -0.0000000
 108  H3 d-1       -0.0305437   -0.0228944    0.1258958   -0.0000000    0.1024325
 109  H3 d+2        0.0177881    0.0066837   -0.0556928    0.0000000   -0.0963646
 110  H3 d-2        0.0000000   -0.0000000    0.0000000   -0.0465666   -0.0000000
 111  H3 f0         0.0030996   -0.0005226   -0.0035133    0.0000000   -0.0117951
 112  H3 f+1       -0.0000000   -0.0000000    0.0000000   -0.0032323   -0.0000000
 113  H3 f-1       -0.0020045   -0.0016058    0.0098852   -0.0000000   -0.0002547
 114  H3 f+2        0.0060254    0.0006683   -0.0131343    0.0000000   -0.0127929
 115  H3 f-2       -0.0000000   -0.0000000   -0.0000000   -0.0069881   -0.0000000
 116  H3 f+3       -0.0000000   -0.0000000   -0.0000000    0.0058552    0.0000000
 117  H3 f-3        0.0031693   -0.0002340   -0.0054196    0.0000000   -0.0095217

            Ene     0.1038610    0.1479873    0.3417253    0.3778915    0.3869654
            Sym             A            A            A            A            A
            Occ             0            0            0            0            0


                           11           12           13           14           15

 1    O1 s0         0.0278459    0.0000000    0.0134942    0.0000000   -0.0000000
 2    O1 s0         0.0023842    0.0000000    0.0004541    0.0000000   -0.0000000
 3    O1 s0         0.0431851    0.0000000    0.0231406   -0.0000000   -0.0000000
 4    O1 s0        -0.0090682    0.0000000   -0.0089339    0.0000000   -0.0000000
 5    O1 s0         0.1252699   -0.0000000    0.0139958   -0.0000000    0.0000000
 6    O1 s0        -0.9286053    0.0000000   -0.1363161    0.0000000    0.0000000
 7    O1 s0        -2.1917105    0.0000000   -0.9359681    0.0000000   -0.0000000
 8    O1 p0         0.1591732    0.0000000    0.0717976    0.0000000    0.0000000
 9    O1 p+1        0.0000000    0.0000000    0.0000000   -0.0000000    0.0599447
 10   O1 p-1       -0.0000000    0.2374058    0.0000000    0.0000000   -0.0000000
 11   O1 p0         0.2195942   -0.0000000    0.0196122   -0.0000000   -0.0000000
 12   O1 p+1       -0.0000000   -0.0000000   -0.0000000   -0.0000000    0.0477298
 13   O1 p-1        0.0000000    0.1030844    0.0000000   -0.0000000    0.0000000
 14   O1 p0         1.1217572   -0.0000000    1.1022080   -0.0000000    0.0000000
 15   O1 p+1       -0.0000000    0.0000000   -0.0000000   -0.0000000    0.8833971
 16   O1 p-1        0.0000000    0.9679728    0.0000000   -0.0000000    0.0000000
 17   O1 p0         0.1233520   -0.0000000    0.8976486   -0.0000000    0.0000000
 18   O1 p+1       -0.0000000    0.0000000   -0.0000000   -0.0000000    0.8676023
 19   O1 p-1        0.0000000   -2.2625801   -0.0000000   -0.0000000    0.0000000
 20   O1 d0         0.0006362   -0.0000000    0.0036870   -0.0000000   -0.0000000
 21   O1 d+1       -0.0000000   -0.0000000   -0.0000000   -0.0000000    0.0069046
 22   O1 d-1        0.0000000    0.0053444    0.0000000   -0.0000000    0.0000000
 23   O1 d+2       -0.0081215    0.0000000    0.0032908    0.0000000   -0.0000000
 24   O1 d-2       -0.0000000    0.0000000    0.0000000    0.0063365    0.0000000
 25   O1 d0        -0.0158873   -0.0000000    0.0221883    0.0000000    0.0000000
 26   O1 d+1        0.0000000    0.0000000    0.0000000   -0.0000000    0.0122491
 27   O1 d-1       -0.0000000   -0.0164654   -0.0000000    0.0000000   -0.0000000
 28   O1 d+2        0.0258314   -0.0000000   -0.0022277   -0.0000000   -0.0000000
 29   O1 d-2       -0.0000000   -0.0000000   -0.0000000    0.0169964    0.0000000
 30   O1 d0        -0.0005471    0.0000000   -0.5789011   -0.0000000    0.0000000
 31   O1 d+1        0.0000000   -0.0000000    0.0000000    0.0000000   -0.2456481
 32   O1 d-1       -0.0000000   -0.0206475   -0.0000000    0.0000000   -0.0000000
 33   O1 d+2        0.1998983   -0.0000000   -0.2717428   -0.0000000    0.0000000
 34   O1 d-2        0.0000000   -0.0000000    0.0000000   -0.2699363   -0.0000000
 35   O1 f0        -0.0003530    0.0000000   -0.0099352   -0.0000000    0.0000000
 36   O1 f+1        0.0000000    0.0000000    0.0000000    0.0000000   -0.0049501
 37   O1 f-1       -0.0000000   -0.0013551   -0.0000000    0.0000000    0.0000000
 38   O1 f+2       -0.0010899   -0.0000000   -0.0007779   -0.0000000    0.0000000
 39   O1 f-2        0.0000000    0.0000000    0.0000000   -0.0078346   -0.0000000
 40   O1 f+3        0.0000000    0.0000000   -0.0000000   -0.0000000    0.0071394
 41   O1 f-3        0.0000000    0.0021461    0.0000000    0.0000000    0.0000000
 42   O1 f0        -0.0247230    0.0000000    0.0968735    0.0000000   -0.0000000
 43   O1 f+1       -0.0000000    0.0000000   -0.0000000   -0.0000000    0.0405572
 44   O1 f-1        0.0000000   -0.0142504    0.0000000   -0.0000000    0.0000000
 45   O1 f+2       -0.0578954    0.0000000    0.0120086    0.0000000   -0.0000000
 46   O1 f-2       -0.0000000    0.0000000   -0.0000000    0.0797937    0.0000000
 47   O1 f+3        0.0000000   -0.0000000    0.0000000    0.0000000   -0.0754438
 48   O1 f-3       -0.0000000   -0.0362765   -0.0000000    0.0000000   -0.0000000
 49   O1 g0         0.0025842   -0.0000000    0.0009018   -0.0000000    0.0000000
 50   O1 g+1       -0.0000000    0.0000000    0.0000000    0.0000000   -0.0006882
 51   O1 g-1       -0.0000000    0.0068500    0.0000000   -0.0000000   -0.0000000
 52   O1 g+2        0.0043203   -0.0000000    0.0099299   -0.0000000    0.0000000
 53   O1 g-2        0.0000000    0.0000000   -0.0000000   -0.0038853    0.0000000
 54   O1 g+3       -0.0000000   -0.0000000   -0.0000000   -0.0000000    0.0089836
 55   O1 g-3        0.0000000    0.0029821    0.0000000   -0.0000000    0.0000000
 56   O1 g+4       -0.0020613    0.0000000    0.0062358    0.0000000   -0.0000000
 57   O1 g-4       -0.0000000    0.0000000   -0.0000000    0.0053109   -0.0000000
 58   H2 s0         0.0467978   -0.0377184   -0.0030107    0.0000000    0.0000000
 59   H2 s0         0.2390370   -0.1472697   -0.0320699   -0.0000000    0.0000000
 60   H2 s0         2.5170684   -0.2116017    1.1085097   -0.0000000    0.0000000
 61   H2 s0        -0.8577419    2.2966033   -0.3218548   -0.0000000   -0.0000000
 62   H2 p0        -0.0133938    0.0220890   -0.0199132   -0.0000000   -0.0000000
 63   H2 p+1       -0.0000000   -0.0000000   -0.0000000    0.0405114   -0.0386806
 64   H2 p-1        0.0337292   -0.0126887   -0.0008093    0.0000000    0.0000000
 65   H2 p0         0.1286800   -0.1002669   -0.0027967   -0.0000000    0.0000000
 66   H2 p+1        0.0000000    0.0000000    0.0000000   -0.1131363    0.1184977
 67   H2 p-1       -0.2038079    0.0532718   -0.0281788    0.0000000   -0.0000000
 68   H2 p0         0.2317787    0.3099459   -0.9040822   -0.0000000    0.0000000
 69   H2 p+1       -0.0000000   -0.0000000    0.0000000    1.1039226   -1.3145962
 70   H2 p-1       -0.0768876   -0.3090884   -0.7488665    0.0000000   -0.0000000
 71   H2 d0         0.0003633   -0.0000828    0.0089701   -0.0000000   -0.0000000
 72   H2 d+1        0.0000000   -0.0000000   -0.0000000   -0.0045705   -0.0006094
 73   H2 d-1       -0.0060284    0.0013745    0.0010354    0.0000000    0.0000000
 74   H2 d+2       -0.0028275    0.0031534    0.0007928    0.0000000    0.0000000
 75   H2 d-2       -0.0000000   -0.0000000   -0.0000000    0.0008741   -0.0094601
 76   H2 d0         0.0171021   -0.0309281   -0.1850036   -0.0000000    0.0000000
 77   H2 d+1        0.0000000    0.0000000    0.0000000    0.0961821   -0.0606363
 78   H2 d-1       -0.0838554   -0.0054883    0.0709496    0.0000000    0.0000000
 79   H2 d+2       -0.0595391   -0.0358850   -0.1020616    0.0000000    0.0000000
 80   H2 d-2        0.0000000    0.0000000   -0.0000000   -0.0886037    0.1548522
 81   H2 f0        -0.0019132   -0.0072605   -0.0055593    0.0000000    0.0000000
 82   H2 f+1        0.0000000    0.0000000   -0.0000000    0.0060096   -0.0041705
 83   H2 f-1       -0.0055380    0.0024519    0.0299865    0.0000000    0.0000000
 84   H2 f+2       -0.0067782   -0.0058711   -0.0014203    0.0000000    0.0000000
 85   H2 f-2       -0.0000000   -0.0000000   -0.0000000   -0.0196305    0.0202023
 86   H2 f+3       -0.0000000   -0.0000000   -0.0000000   -0.0161657    0.0189872
 87   H2 f-3        0.0037093    0.0055181    0.0134025   -0.0000000   -0.0000000
 88   H3 s0         0.0467978    0.0377184   -0.0030107    0.0000000   -0.0000000
 89   H3 s0         0.2390370    0.1472697   -0.0320699   -0.0000000    0.0000000
 90   H3 s0         2.5170684    0.2116017    1.1085097   -0.0000000    0.0000000
 91   H3 s0        -0.8577419   -2.2966033   -0.3218548   -0.0000000    0.0000000
 92   H3 p0        -0.0133938   -0.0220890   -0.0199132    0.0000000    0.0000000
 93   H3 p+1        0.0000000    0.0000000   -0.0000000   -0.0405114   -0.0386806
 94   H3 p-1       -0.0337292   -0.0126887    0.0008093    0.0000000   -0.0000000
 95   H3 p0         0.1286800    0.1002669   -0.0027967   -0.0000000    0.0000000
 96   H3 p+1        0.0000000   -0.0000000    0.0000000    0.1131363    0.1184977
 97   H3 p-1        0.2038079    0.0532718    0.0281788   -0.0000000    0.0000000
 98   H3 p0         0.2317787   -0.3099459   -0.9040822   -0.0000000    0.0000000
 99   H3 p+1        0.0000000   -0.0000000    0.0000000   -1.1039226   -1.3145962
 100  H3 p-1        0.0768876   -0.3090884    0.7488665   -0.0000000    0.0000000
 101  H3 d0         0.0003633    0.0000828    0.0089701    0.0000000   -0.0000000
 102  H3 d+1        0.0000000    0.0000000    0.0000000    0.0045705   -0.0006094
 103  H3 d-1        0.0060284    0.0013745   -0.0010354   -0.0000000    0.0000000
 104  H3 d+2       -0.0028275   -0.0031534    0.0007928    0.0000000    0.0000000
 105  H3 d-2        0.0000000    0.0000000    0.0000000    0.0008741    0.0094601
 106  H3 d0         0.0171021    0.0309281   -0.1850036   -0.0000000    0.0000000
 107  H3 d+1        0.0000000   -0.0000000    0.0000000   -0.0961821   -0.0606363
 108  H3 d-1        0.0838554   -0.0054883   -0.0709496   -0.0000000    0.0000000
 109  H3 d+2       -0.0595391    0.0358850   -0.1020616    0.0000000   -0.0000000
 110  H3 d-2        0.0000000   -0.0000000    0.0000000   -0.0886037   -0.1548522
 111  H3 f0        -0.0019132    0.0072605   -0.0055593    0.0000000    0.0000000
 112  H3 f+1        0.0000000   -0.0000000   -0.0000000   -0.0060096   -0.0041705
 113  H3 f-1        0.0055380    0.0024519   -0.0299865   -0.0000000    0.0000000
 114  H3 f+2       -0.0067782    0.0058711   -0.0014203    0.0000000   -0.0000000
 115  H3 f-2        0.0000000   -0.0000000    0.0000000   -0.0196305   -0.0202023
 116  H3 f+3       -0.0000000    0.0000000   -0.0000000    0.0161657    0.0189872
 117  H3 f-3       -0.0037093    0.0055181   -0.0134025    0.0000000   -0.0000000

            Ene     0.4498496    0.5296061    0.5917879    0.6540035    0.7134733
            Sym             A            A            A            A            A
            Occ             0            0            0            0            0


                           16           17           18           19           20

 1    O1 s0         0.0558645    0.0000000    0.0286615    0.0000000   -0.0000000
 2    O1 s0         0.0071672    0.0000000   -0.0068372   -0.0000000    0.0000000
 3    O1 s0         0.0778425    0.0000000    0.0773167    0.0000000   -0.0000000
 4    O1 s0         0.0310087   -0.0000000   -0.1158556   -0.0000000    0.0000000
 5    O1 s0        -0.3260311    0.0000000    0.7562731    0.0000000   -0.0000000
 6    O1 s0        -0.3444025   -0.0000000   -4.4970485   -0.0000000    0.0000000
 7    O1 s0        13.7719618    0.0000000  -11.5221823   -0.0000000    0.0000000
 8    O1 p0        -0.0155901   -0.0000000    0.0345963    0.0000000   -0.0000000
 9    O1 p+1        0.0000000    0.0000000    0.0000000   -0.0000000    0.0000000
 10   O1 p-1       -0.0000000    0.0259010   -0.0000000    0.0076654    0.1636206
 11   O1 p0         0.0771655    0.0000000    0.4863388    0.0000000   -0.0000000
 12   O1 p+1        0.0000000    0.0000000   -0.0000000   -0.0000000   -0.0000000
 13   O1 p-1       -0.0000000    0.0657477    0.0000000   -0.3901904   -0.1498526
 14   O1 p0        -3.8437703   -0.0000000    3.3917409    0.0000000   -0.0000000
 15   O1 p+1        0.0000000   -0.0000000   -0.0000000    0.0000000    0.0000000
 16   O1 p-1       -0.0000000    2.7744463    0.0000000   -6.9106440    1.3307843
 17   O1 p0        -1.8639305   -0.0000000    1.2480965    0.0000000   -0.0000000
 18   O1 p+1        0.0000000   -0.0000000   -0.0000000    0.0000000   -0.0000000
 19   O1 p-1       -0.0000000    1.9931263    0.0000000   -1.7192505   -0.0394204
 20   O1 d0        -0.0021741   -0.0000000   -0.0008462    0.0000000   -0.0000000
 21   O1 d+1        0.0000000   -0.0000000    0.0000000    0.0000000   -0.0000000
 22   O1 d-1       -0.0000000    0.0010040    0.0000000   -0.0157467    0.0125835
 23   O1 d+2        0.0097168   -0.0000000   -0.0127958   -0.0000000    0.0000000
 24   O1 d-2        0.0000000    0.0000000    0.0000000    0.0000000   -0.0000000
 25   O1 d0        -0.0068030   -0.0000000   -0.0121564   -0.0000000    0.0000000
 26   O1 d+1       -0.0000000    0.0000000    0.0000000   -0.0000000    0.0000000
 27   O1 d-1        0.0000000   -0.0317825   -0.0000000    0.1808687    0.0932013
 28   O1 d+2       -0.0159579    0.0000000    0.1373830    0.0000000   -0.0000000
 29   O1 d-2       -0.0000000   -0.0000000   -0.0000000    0.0000000    0.0000000
 30   O1 d0         0.2249152    0.0000000    0.0433020   -0.0000000    0.0000000
 31   O1 d+1       -0.0000000    0.0000000    0.0000000   -0.0000000    0.0000000
 32   O1 d-1        0.0000000   -0.7325713   -0.0000000    2.0094515    0.4540030
 33   O1 d+2       -0.8356860    0.0000000    0.6868178    0.0000000    0.0000000
 34   O1 d-2       -0.0000000   -0.0000000   -0.0000000    0.0000000   -0.0000000
 35   O1 f0        -0.0049278   -0.0000000   -0.0056087   -0.0000000    0.0000000
 36   O1 f+1       -0.0000000    0.0000000    0.0000000   -0.0000000   -0.0000000
 37   O1 f-1        0.0000000    0.0010242   -0.0000000    0.0040429   -0.0028175
 38   O1 f+2       -0.0198059   -0.0000000   -0.0194677   -0.0000000    0.0000000
 39   O1 f-2        0.0000000    0.0000000    0.0000000    0.0000000   -0.0000000
 40   O1 f+3       -0.0000000   -0.0000000    0.0000000    0.0000000   -0.0000000
 41   O1 f-3       -0.0000000    0.0068532    0.0000000    0.0015576    0.0059047
 42   O1 f0         0.0844289   -0.0000000   -0.0727863   -0.0000000   -0.0000000
 43   O1 f+1        0.0000000   -0.0000000   -0.0000000    0.0000000   -0.0000000
 44   O1 f-1       -0.0000000    0.0137135    0.0000000   -0.2137327   -0.0803617
 45   O1 f+2        0.2461637   -0.0000000   -0.0921262   -0.0000000   -0.0000000
 46   O1 f-2        0.0000000    0.0000000    0.0000000   -0.0000000    0.0000000
 47   O1 f+3       -0.0000000    0.0000000    0.0000000   -0.0000000    0.0000000
 48   O1 f-3        0.0000000   -0.0935698   -0.0000000    0.0980443   -0.0118371
 49   O1 g0        -0.0130328    0.0000000    0.0106870    0.0000000   -0.0000000
 50   O1 g+1        0.0000000    0.0000000   -0.0000000   -0.0000000   -0.0000000
 51   O1 g-1        0.0000000    0.0063605   -0.0000000    0.0066193    0.0083988
 52   O1 g+2       -0.0209437    0.0000000    0.0107818    0.0000000   -0.0000000
 53   O1 g-2        0.0000000   -0.0000000   -0.0000000    0.0000000   -0.0000000
 54   O1 g+3        0.0000000   -0.0000000   -0.0000000    0.0000000   -0.0000000
 55   O1 g-3       -0.0000000    0.0100322    0.0000000   -0.0171954    0.0010649
 56   O1 g+4        0.0111048   -0.0000000   -0.0059111   -0.0000000   -0.0000000
 57   O1 g-4        0.0000000    0.0000000   -0.0000000   -0.0000000    0.0000000
 58   H2 s0         0.0598463    0.0374566   -0.0812928   -0.1034513   -0.0700820
 59   H2 s0        -1.1799006   -0.5907269    0.3807991    1.1191577   -0.6670431
 60   H2 s0        -6.1132274   -3.1549421    7.5815388    9.7104434   -0.0243287
 61   H2 s0        -0.3497533   -0.1735243   -0.3014016   -0.3024353   -0.8236421
 62   H2 p0        -0.0044083   -0.0271165   -0.0144124   -0.0398884   -0.0385203
 63   H2 p+1        0.0000000   -0.0000000   -0.0000000    0.0000000   -0.0000000
 64   H2 p-1       -0.0059548   -0.0439438    0.0141910    0.0263322    0.0477343
 65   H2 p0        -0.2294458   -0.0043901    0.2399485    0.4360706    0.2259235
 66   H2 p+1        0.0000000    0.0000000    0.0000000   -0.0000000    0.0000000
 67   H2 p-1        0.3453677    0.3367207   -0.2888004   -0.4807189   -0.2838473
 68   H2 p0        -1.2269974   -1.9375463    2.4916646    2.6293226   -0.9687483
 69   H2 p+1       -0.0000000    0.0000000    0.0000000   -0.0000000    0.0000000
 70   H2 p-1        2.0359331   -0.0825801   -2.9949924   -4.3742615    0.8910893
 71   H2 d0        -0.0053356    0.0055664   -0.0028129   -0.0009327   -0.0011838
 72   H2 d+1       -0.0000000    0.0000000   -0.0000000   -0.0000000    0.0000000
 73   H2 d-1        0.0189565   -0.0017125    0.0019679    0.0018787   -0.0102238
 74   H2 d+2        0.0057639    0.0114381   -0.0017959    0.0028674   -0.0020113
 75   H2 d-2        0.0000000   -0.0000000   -0.0000000    0.0000000   -0.0000000
 76   H2 d0         0.0162616   -0.0971539    0.0758028   -0.0689121   -0.0497924
 77   H2 d+1       -0.0000000    0.0000000    0.0000000   -0.0000000    0.0000000
 78   H2 d-1        0.1031120    0.1321430   -0.4730898   -0.4378309   -0.0323411
 79   H2 d+2        0.1343891   -0.0266875   -0.2515487   -0.3521092   -0.0832694
 80   H2 d-2        0.0000000   -0.0000000   -0.0000000    0.0000000   -0.0000000
 81   H2 f0        -0.0045854   -0.0075380   -0.0245644   -0.0259754   -0.0156461
 82   H2 f+1        0.0000000    0.0000000    0.0000000   -0.0000000    0.0000000
 83   H2 f-1       -0.0052004    0.0209004   -0.0315674    0.0013770    0.0058597
 84   H2 f+2       -0.0063818    0.0032802   -0.0519262   -0.0307121   -0.0136335
 85   H2 f-2        0.0000000   -0.0000000   -0.0000000    0.0000000   -0.0000000
 86   H2 f+3        0.0000000   -0.0000000   -0.0000000    0.0000000   -0.0000000
 87   H2 f-3       -0.0007436    0.0136581    0.0200435    0.0272971    0.0109585
 88   H3 s0         0.0598463   -0.0374566   -0.0812928    0.1034513    0.0700820
 89   H3 s0        -1.1799006    0.5907269    0.3807991   -1.1191577    0.6670431
 90   H3 s0        -6.1132274    3.1549421    7.5815388   -9.7104434    0.0243287
 91   H3 s0        -0.3497533    0.1735243   -0.3014016    0.3024353    0.8236421
 92   H3 p0        -0.0044083    0.0271165   -0.0144124    0.0398884    0.0385203
 93   H3 p+1        0.0000000   -0.0000000   -0.0000000    0.0000000   -0.0000000
 94   H3 p-1        0.0059548   -0.0439438   -0.0141910    0.0263322    0.0477343
 95   H3 p0        -0.2294458    0.0043901    0.2399485   -0.4360706   -0.2259235
 96   H3 p+1       -0.0000000    0.0000000    0.0000000   -0.0000000    0.0000000
 97   H3 p-1       -0.3453677    0.3367207    0.2888004   -0.4807189   -0.2838473
 98   H3 p0        -1.2269974    1.9375463    2.4916646   -2.6293226    0.9687483
 99   H3 p+1       -0.0000000   -0.0000000    0.0000000    0.0000000   -0.0000000
 100  H3 p-1       -2.0359331   -0.0825801    2.9949924   -4.3742615    0.8910893
 101  H3 d0        -0.0053356   -0.0055664   -0.0028129    0.0009327    0.0011838
 102  H3 d+1       -0.0000000    0.0000000   -0.0000000   -0.0000000    0.0000000
 103  H3 d-1       -0.0189565   -0.0017125   -0.0019679    0.0018787   -0.0102238
 104  H3 d+2        0.0057639   -0.0114381   -0.0017959   -0.0028674    0.0020113
 105  H3 d-2       -0.0000000   -0.0000000    0.0000000    0.0000000   -0.0000000
 106  H3 d0         0.0162616    0.0971539    0.0758028    0.0689121    0.0497924
 107  H3 d+1       -0.0000000   -0.0000000    0.0000000    0.0000000    0.0000000
 108  H3 d-1       -0.1031120    0.1321430    0.4730898   -0.4378309   -0.0323411
 109  H3 d+2        0.1343891    0.0266875   -0.2515487    0.3521092    0.0832694
 110  H3 d-2       -0.0000000   -0.0000000    0.0000000    0.0000000    0.0000000
 111  H3 f0        -0.0045854    0.0075380   -0.0245644    0.0259754    0.0156461
 112  H3 f+1       -0.0000000    0.0000000    0.0000000    0.0000000    0.0000000
 113  H3 f-1        0.0052004    0.0209004    0.0315674    0.0013770    0.0058597
 114  H3 f+2       -0.0063818   -0.0032802   -0.0519262    0.0307121    0.0136335
 115  H3 f-2       -0.0000000   -0.0000000    0.0000000    0.0000000    0.0000000
 116  H3 f+3        0.0000000    0.0000000   -0.0000000   -0.0000000   -0.0000000
 117  H3 f-3        0.0007436    0.0136581   -0.0200435    0.0272971    0.0109585

            Ene     0.7512733    0.8994860    1.0333007    1.0455785    1.1555912
            Sym             A            A            A            A            A
            Occ             0            0            0            0            0


                           21           22           23           24           25

 1    O1 s0         0.0315090   -0.0000000    0.0000000    0.0089724    0.0092579
 2    O1 s0         0.0058308   -0.0000000   -0.0000000   -0.0053209    0.0008298
 3    O1 s0         0.0392012   -0.0000000    0.0000000    0.0360751    0.0155092
 4    O1 s0         0.0346338    0.0000000   -0.0000000   -0.0757411   -0.0079094
 5    O1 s0        -0.3796505   -0.0000000    0.0000000    0.3358149    0.1166216
 6    O1 s0         0.9427263    0.0000000   -0.0000000   -1.0852407   -0.8709897
 7    O1 s0         2.9156574    0.0000000    0.0000000    1.8134978    0.5896390
 8    O1 p0         0.1293593    0.0000000   -0.0000000   -0.2675640    0.0692334
 9    O1 p+1        0.0000000    0.0418837   -0.0000000    0.0000000   -0.0000000
 10   O1 p-1        0.0000000   -0.0000000    0.0000000    0.0000000   -0.0000000
 11   O1 p0        -0.1932095    0.0000000   -0.0000000   -0.7226821    0.2365360
 12   O1 p+1        0.0000000    0.2304568   -0.0000000    0.0000000   -0.0000000
 13   O1 p-1       -0.0000000    0.0000000    0.0000000    0.0000000   -0.0000000
 14   O1 p0        -0.5752049   -0.0000000    0.0000000    1.9242778   -1.4768240
 15   O1 p+1        0.0000000    0.4280318   -0.0000000   -0.0000000    0.0000000
 16   O1 p-1       -0.0000000    0.0000000    0.0000000   -0.0000000    0.0000000
 17   O1 p0        -0.7550955    0.0000000   -0.0000000   -1.0887430   -0.6607263
 18   O1 p+1        0.0000000    0.7413413   -0.0000000    0.0000000   -0.0000000
 19   O1 p-1        0.0000000   -0.0000000    0.0000000    0.0000000   -0.0000000
 20   O1 d0         0.0052877    0.0000000    0.0000000    0.0269485    0.0318042
 21   O1 d+1        0.0000000   -0.0462224    0.0000000   -0.0000000    0.0000000
 22   O1 d-1       -0.0000000    0.0000000   -0.0000000   -0.0000000    0.0000000
 23   O1 d+2       -0.0119415    0.0000000   -0.0000000   -0.0255479   -0.0038521
 24   O1 d-2        0.0000000    0.0000000    0.0363634   -0.0000000    0.0000000
 25   O1 d0        -0.0152866    0.0000000   -0.0000000   -0.0669671   -0.0143985
 26   O1 d+1       -0.0000000    0.0824764   -0.0000000    0.0000000   -0.0000000
 27   O1 d-1        0.0000000   -0.0000000    0.0000000    0.0000000    0.0000000
 28   O1 d+2       -0.0898916   -0.0000000    0.0000000    0.0744424    0.0666953
 29   O1 d-2       -0.0000000   -0.0000000   -0.0313164    0.0000000   -0.0000000
 30   O1 d0        -0.1076458    0.0000000   -0.0000000   -0.1086179    2.3526596
 31   O1 d+1       -0.0000000   -1.4345812    0.0000000   -0.0000000   -0.0000000
 32   O1 d-1        0.0000000   -0.0000000    0.0000000    0.0000000   -0.0000000
 33   O1 d+2       -1.0049466   -0.0000000   -0.0000000   -0.6004041    1.0277334
 34   O1 d-2        0.0000000    0.0000000    1.8965072   -0.0000000    0.0000000
 35   O1 f0         0.0001258    0.0000000   -0.0000000   -0.0086166    0.0197176
 36   O1 f+1       -0.0000000   -0.0018584    0.0000000    0.0000000   -0.0000000
 37   O1 f-1        0.0000000   -0.0000000    0.0000000    0.0000000   -0.0000000
 38   O1 f+2        0.0056648   -0.0000000    0.0000000    0.0020363    0.0029521
 39   O1 f-2       -0.0000000    0.0000000    0.0149625   -0.0000000    0.0000000
 40   O1 f+3       -0.0000000    0.0058132   -0.0000000   -0.0000000    0.0000000
 41   O1 f-3       -0.0000000    0.0000000   -0.0000000   -0.0000000    0.0000000
 42   O1 f0         0.1026625   -0.0000000    0.0000000    0.0700600   -0.2906337
 43   O1 f+1        0.0000000    0.0478415   -0.0000000    0.0000000    0.0000000
 44   O1 f-1       -0.0000000    0.0000000   -0.0000000   -0.0000000   -0.0000000
 45   O1 f+2        0.1445610    0.0000000   -0.0000000   -0.0564222   -0.1007348
 46   O1 f-2        0.0000000   -0.0000000   -0.2736957    0.0000000   -0.0000000
 47   O1 f+3       -0.0000000   -0.0990369    0.0000000    0.0000000   -0.0000000
 48   O1 f-3        0.0000000   -0.0000000    0.0000000    0.0000000   -0.0000000
 49   O1 g0        -0.0044478   -0.0000000    0.0000000    0.0037748    0.0050204
 50   O1 g+1        0.0000000    0.0007247   -0.0000000   -0.0000000   -0.0000000
 51   O1 g-1        0.0000000    0.0000000   -0.0000000   -0.0000000    0.0000000
 52   O1 g+2       -0.0023821   -0.0000000    0.0000000    0.0169882   -0.0258977
 53   O1 g-2       -0.0000000    0.0000000    0.0270892   -0.0000000    0.0000000
 54   O1 g+3        0.0000000    0.0244573   -0.0000000   -0.0000000    0.0000000
 55   O1 g-3       -0.0000000    0.0000000   -0.0000000   -0.0000000    0.0000000
 56   O1 g+4        0.0098575    0.0000000    0.0000000    0.0054659   -0.0201651
 57   O1 g-4        0.0000000   -0.0000000   -0.0323188    0.0000000   -0.0000000
 58   H2 s0         0.0972486    0.0000000   -0.0000000   -0.0398792    0.0153319
 59   H2 s0         0.2799876   -0.0000000    0.0000000   -0.0677683    0.3639672
 60   H2 s0        -2.9640246   -0.0000000   -0.0000000   -0.2886180   -0.5432219
 61   H2 s0         0.5981468    0.0000000   -0.0000000   -0.2659533    0.1448097
 62   H2 p0         0.0457609   -0.0000000    0.0000000    0.0088325   -0.0211715
 63   H2 p+1        0.0000000    0.0036668    0.0168120   -0.0000000    0.0000000
 64   H2 p-1       -0.0510556   -0.0000000    0.0000000    0.0448744   -0.0370103
 65   H2 p0        -0.3960108   -0.0000000    0.0000000    0.0208323    0.2428600
 66   H2 p+1       -0.0000000   -0.0366651   -0.1369337    0.0000000   -0.0000000
 67   H2 p-1        0.4617593    0.0000000   -0.0000000   -0.3729375    0.0991814
 68   H2 p0        -0.2322333    0.0000000   -0.0000000   -0.2493771    1.1857882
 69   H2 p+1       -0.0000000   -0.9492582   -1.0487732    0.0000000   -0.0000000
 70   H2 p-1        0.0043328    0.0000000    0.0000000    0.1521286    0.6348156
 71   H2 d0        -0.0002274   -0.0000000    0.0000000    0.0003917   -0.0080159
 72   H2 d+1        0.0000000    0.0137315   -0.0085591    0.0000000   -0.0000000
 73   H2 d-1        0.0099940    0.0000000   -0.0000000   -0.0188783   -0.0069166
 74   H2 d+2        0.0115898    0.0000000   -0.0000000    0.0034528   -0.0094302
 75   H2 d-2       -0.0000000    0.0116504   -0.0027046    0.0000000   -0.0000000
 76   H2 d0        -0.0865559    0.0000000   -0.0000000   -0.1470785    0.4375533
 77   H2 d+1       -0.0000000   -0.1946750   -0.1890008    0.0000000   -0.0000000
 78   H2 d-1        0.2285206    0.0000000    0.0000000    0.1050644   -0.2513325
 79   H2 d+2        0.0542970    0.0000000   -0.0000000   -0.1938153    0.2699953
 80   H2 d-2        0.0000000    0.0760977    0.3224849   -0.0000000    0.0000000
 81   H2 f0         0.0017454    0.0000000   -0.0000000   -0.0052646    0.0069060
 82   H2 f+1        0.0000000   -0.0018463   -0.0182308    0.0000000   -0.0000000
 83   H2 f-1        0.0231786   -0.0000000    0.0000000    0.0279345   -0.0770404
 84   H2 f+2        0.0166406    0.0000000   -0.0000000    0.0065609   -0.0051355
 85   H2 f-2       -0.0000000    0.0244028    0.0612053   -0.0000000    0.0000000
 86   H2 f+3        0.0000000    0.0299085    0.0371528   -0.0000000    0.0000000
 87   H2 f-3       -0.0048848   -0.0000000    0.0000000    0.0076593   -0.0389863
 88   H3 s0         0.0972486    0.0000000   -0.0000000   -0.0398792    0.0153319
 89   H3 s0         0.2799876   -0.0000000   -0.0000000   -0.0677683    0.3639672
 90   H3 s0        -2.9640246   -0.0000000    0.0000000   -0.2886180   -0.5432219
 91   H3 s0         0.5981468    0.0000000   -0.0000000   -0.2659533    0.1448097
 92   H3 p0         0.0457609   -0.0000000    0.0000000    0.0088325   -0.0211715
 93   H3 p+1        0.0000000    0.0036668   -0.0168120    0.0000000    0.0000000
 94   H3 p-1        0.0510556    0.0000000   -0.0000000   -0.0448744    0.0370103
 95   H3 p0        -0.3960108   -0.0000000    0.0000000    0.0208323    0.2428600
 96   H3 p+1       -0.0000000   -0.0366651    0.1369337   -0.0000000   -0.0000000
 97   H3 p-1       -0.4617593   -0.0000000    0.0000000    0.3729375   -0.0991814
 98   H3 p0        -0.2322333    0.0000000   -0.0000000   -0.2493771    1.1857882
 99   H3 p+1       -0.0000000   -0.9492582    1.0487732   -0.0000000    0.0000000
 100  H3 p-1       -0.0043328   -0.0000000    0.0000000   -0.1521286   -0.6348156
 101  H3 d0        -0.0002274   -0.0000000    0.0000000    0.0003917   -0.0080159
 102  H3 d+1        0.0000000    0.0137315    0.0085591   -0.0000000   -0.0000000
 103  H3 d-1       -0.0099940   -0.0000000    0.0000000    0.0188783    0.0069166
 104  H3 d+2        0.0115898    0.0000000    0.0000000    0.0034528   -0.0094302
 105  H3 d-2        0.0000000   -0.0116504   -0.0027046   -0.0000000    0.0000000
 106  H3 d0        -0.0865559    0.0000000   -0.0000000   -0.1470785    0.4375533
 107  H3 d+1       -0.0000000   -0.1946750    0.1890008   -0.0000000   -0.0000000
 108  H3 d-1       -0.2285206    0.0000000   -0.0000000   -0.1050644    0.2513325
 109  H3 d+2        0.0542970    0.0000000   -0.0000000   -0.1938153    0.2699953
 110  H3 d-2       -0.0000000   -0.0760977    0.3224849   -0.0000000   -0.0000000
 111  H3 f0         0.0017454    0.0000000   -0.0000000   -0.0052646    0.0069060
 112  H3 f+1       -0.0000000   -0.0018463    0.0182308   -0.0000000   -0.0000000
 113  H3 f-1       -0.0231786    0.0000000   -0.0000000   -0.0279345    0.0770404
 114  H3 f+2        0.0166406   -0.0000000    0.0000000    0.0065609   -0.0051355
 115  H3 f-2       -0.0000000   -0.0244028    0.0612053   -0.0000000   -0.0000000
 116  H3 f+3        0.0000000    0.0299085   -0.0371528    0.0000000    0.0000000
 117  H3 f-3        0.0048848    0.0000000   -0.0000000   -0.0076593    0.0389863

            Ene     1.2088536    1.4663438    1.4839532    1.4899163    1.5544088
            Sym             A            A            A            A            A
            Occ             0            0            0            0            0


                           26           27           28           29           30

 1    O1 s0         0.0000000   -0.0000000    0.0516302    0.0000000    0.0152246
 2    O1 s0        -0.0000000    0.0000000   -0.0059367    0.0000000    0.0010660
 3    O1 s0         0.0000000   -0.0000000    0.1255216    0.0000000    0.0268847
 4    O1 s0        -0.0000000    0.0000000   -0.1724810   -0.0000000   -0.0111649
 5    O1 s0         0.0000000   -0.0000000    1.0271110    0.0000000   -0.0647771
 6    O1 s0        -0.0000000    0.0000000   -3.5049861   -0.0000000    0.8209415
 7    O1 s0        -0.0000000    0.0000000  -15.3325893   -0.0000000    0.1437073
 8    O1 p0         0.0000000    0.0000000   -0.1393245   -0.0000000    0.0568008
 9    O1 p+1        0.3000882    0.0000000   -0.0000000    0.0075770   -0.0000000
 10   O1 p-1       -0.0000000    0.2851864   -0.0000000   -0.0000000   -0.0000000
 11   O1 p0         0.0000000    0.0000000   -0.4323385   -0.0000000   -0.0807439
 12   O1 p+1        1.0220732    0.0000000   -0.0000000   -0.1054178   -0.0000000
 13   O1 p-1       -0.0000000    0.9761818   -0.0000000   -0.0000000   -0.0000000
 14   O1 p0         0.0000000   -0.0000000    7.3272719    0.0000000    0.7006916
 15   O1 p+1       -3.1380727   -0.0000000    0.0000000   -0.4121073    0.0000000
 16   O1 p-1        0.0000000   -4.2819405    0.0000000    0.0000000    0.0000000
 17   O1 p0        -0.0000000   -0.0000000    1.2830261    0.0000000   -0.1778876
 18   O1 p+1        0.6872309    0.0000000   -0.0000000   -0.2477212   -0.0000000
 19   O1 p-1       -0.0000000    1.4605709    0.0000000    0.0000000    0.0000000
 20   O1 d0         0.0000000    0.0000000   -0.0054385    0.0000000    0.0015086
 21   O1 d+1       -0.0052904    0.0000000   -0.0000000    0.0110323   -0.0000000
 22   O1 d-1        0.0000000   -0.0305584    0.0000000   -0.0000000   -0.0000000
 23   O1 d+2       -0.0000000    0.0000000    0.0008194   -0.0000000    0.0252638
 24   O1 d-2       -0.0000000   -0.0000000   -0.0000000    0.0000000   -0.0000000
 25   O1 d0        -0.0000000    0.0000000   -0.0096015   -0.0000000    0.0284662
 26   O1 d+1        0.0356094    0.0000000    0.0000000   -0.0034708    0.0000000
 27   O1 d-1        0.0000000    0.0489443   -0.0000000    0.0000000    0.0000000
 28   O1 d+2        0.0000000   -0.0000000    0.0593730    0.0000000   -0.1105562
 29   O1 d-2        0.0000000   -0.0000000    0.0000000    0.0000000    0.0000000
 30   O1 d0         0.0000000    0.0000000   -0.4887234   -0.0000000   -0.9478562
 31   O1 d+1        0.7848467    0.0000000   -0.0000000    0.9398990   -0.0000000
 32   O1 d-1       -0.0000000    0.1657970   -0.0000000   -0.0000000   -0.0000000
 33   O1 d+2        0.0000000   -0.0000000    2.6005471    0.0000000    0.5588494
 34   O1 d-2       -0.0000000   -0.0000000    0.0000000    0.0000000    0.0000000
 35   O1 f0         0.0000000   -0.0000000    0.0151125    0.0000000   -0.0078659
 36   O1 f+1        0.0062496    0.0000000    0.0000000    0.0073361    0.0000000
 37   O1 f-1       -0.0000000    0.0020387   -0.0000000   -0.0000000   -0.0000000
 38   O1 f+2        0.0000000   -0.0000000    0.0330950    0.0000000    0.0076787
 39   O1 f-2        0.0000000   -0.0000000    0.0000000   -0.0000000    0.0000000
 40   O1 f+3       -0.0138092   -0.0000000    0.0000000    0.0029781   -0.0000000
 41   O1 f-3        0.0000000   -0.0148571    0.0000000    0.0000000    0.0000000
 42   O1 f0        -0.0000000    0.0000000   -0.2355777   -0.0000000    0.1152013
 43   O1 f+1       -0.0878444   -0.0000000   -0.0000000   -0.0684556   -0.0000000
 44   O1 f-1       -0.0000000    0.0751999    0.0000000    0.0000000    0.0000000
 45   O1 f+2       -0.0000000    0.0000000   -0.5233767   -0.0000000    0.0036276
 46   O1 f-2       -0.0000000    0.0000000   -0.0000000    0.0000000   -0.0000000
 47   O1 f+3        0.2147696    0.0000000    0.0000000    0.0427411    0.0000000
 48   O1 f-3       -0.0000000    0.1831286   -0.0000000   -0.0000000   -0.0000000
 49   O1 g0         0.0000000   -0.0000000    0.0373645    0.0000000   -0.0121612
 50   O1 g+1       -0.0021569   -0.0000000   -0.0000000    0.0154870    0.0000000
 51   O1 g-1        0.0000000   -0.0304170   -0.0000000    0.0000000    0.0000000
 52   O1 g+2        0.0000000   -0.0000000    0.0495147    0.0000000    0.0174898
 53   O1 g-2        0.0000000   -0.0000000    0.0000000    0.0000000    0.0000000
 54   O1 g+3       -0.0444892   -0.0000000   -0.0000000   -0.0099235   -0.0000000
 55   O1 g-3        0.0000000   -0.0163302    0.0000000    0.0000000    0.0000000
 56   O1 g+4       -0.0000000    0.0000000   -0.0318945   -0.0000000   -0.0108187
 57   O1 g-4       -0.0000000    0.0000000   -0.0000000   -0.0000000   -0.0000000
 58   H2 s0        -0.0000000   -0.0413748   -0.0516529   -0.0000000   -0.0159472
 59   H2 s0         0.0000000    0.5813609    3.5485066   -0.0000000    0.6592483
 60   H2 s0         0.0000000    1.5712837    7.1985146    0.0000000   -0.7989563
 61   H2 s0         0.0000000   -1.2600149    0.0672422    0.0000000    0.1235922
 62   H2 p0        -0.0000000   -0.0323046   -0.0156232   -0.0000000    0.0567295
 63   H2 p+1       -0.0303002    0.0000000   -0.0000000    0.0083118    0.0000000
 64   H2 p-1       -0.0000000    0.0150260    0.0010989    0.0000000    0.0418101
 65   H2 p0         0.0000000    0.3508296    0.7250553    0.0000000   -0.3731639
 66   H2 p+1        0.1977519   -0.0000000    0.0000000   -0.0988375   -0.0000000
 67   H2 p-1       -0.0000000   -0.3093399   -0.7099722    0.0000000   -0.3020308
 68   H2 p0         0.0000000    0.5795679    1.7811922    0.0000000   -0.2575049
 69   H2 p+1        0.6897348    0.0000000   -0.0000000    0.4879496   -0.0000000
 70   H2 p-1       -0.0000000   -0.1069359   -2.8145356   -0.0000000    0.2978309
 71   H2 d0         0.0000000    0.0018658    0.0228894    0.0000000   -0.0376094
 72   H2 d+1       -0.0048206   -0.0000000   -0.0000000    0.0696742    0.0000000
 73   H2 d-1       -0.0000000   -0.0030241   -0.0592453   -0.0000000   -0.0533027
 74   H2 d+2       -0.0000000   -0.0168214   -0.0380139   -0.0000000    0.0598772
 75   H2 d-2        0.0072927    0.0000000   -0.0000000    0.0701302    0.0000000
 76   H2 d0         0.0000000    0.1955427   -0.0739930   -0.0000000    0.1079106
 77   H2 d+1        0.2549910    0.0000000   -0.0000000   -0.4718325   -0.0000000
 78   H2 d-1       -0.0000000   -0.1082730   -0.2137460   -0.0000000    0.6588214
 79   H2 d+2       -0.0000000    0.1590296   -0.0950522   -0.0000000   -0.5679311
 80   H2 d-2       -0.3467902   -0.0000000    0.0000000   -0.6554714    0.0000000
 81   H2 f0        -0.0000000    0.0349602    0.0043856   -0.0000000    0.0222132
 82   H2 f+1        0.0156273    0.0000000   -0.0000000   -0.0049357    0.0000000
 83   H2 f-1       -0.0000000   -0.0264619    0.0017965   -0.0000000    0.0333036
 84   H2 f+2       -0.0000000    0.0209182    0.0148375   -0.0000000    0.0397147
 85   H2 f-2       -0.0482144   -0.0000000    0.0000000   -0.0073903    0.0000000
 86   H2 f+3       -0.0458844   -0.0000000    0.0000000   -0.0370611    0.0000000
 87   H2 f-3        0.0000000   -0.0263297    0.0023086    0.0000000    0.0157825
 88   H3 s0        -0.0000000    0.0413748   -0.0516529   -0.0000000   -0.0159472
 89   H3 s0         0.0000000   -0.5813609    3.5485066    0.0000000    0.6592483
 90   H3 s0         0.0000000   -1.5712837    7.1985146    0.0000000   -0.7989563
 91   H3 s0        -0.0000000    1.2600149    0.0672422   -0.0000000    0.1235922
 92   H3 p0        -0.0000000    0.0323046   -0.0156232   -0.0000000    0.0567295
 93   H3 p+1       -0.0303002    0.0000000   -0.0000000    0.0083118   -0.0000000
 94   H3 p-1        0.0000000    0.0150260   -0.0010989    0.0000000   -0.0418101
 95   H3 p0         0.0000000   -0.3508296    0.7250553    0.0000000   -0.3731639
 96   H3 p+1        0.1977519    0.0000000    0.0000000   -0.0988375    0.0000000
 97   H3 p-1        0.0000000   -0.3093399    0.7099722    0.0000000    0.3020308
 98   H3 p0         0.0000000   -0.5795679    1.7811922    0.0000000   -0.2575049
 99   H3 p+1        0.6897348    0.0000000    0.0000000    0.4879496    0.0000000
 100  H3 p-1        0.0000000   -0.1069359    2.8145356    0.0000000   -0.2978309
 101  H3 d0        -0.0000000   -0.0018658    0.0228894   -0.0000000   -0.0376094
 102  H3 d+1       -0.0048206   -0.0000000   -0.0000000    0.0696742   -0.0000000
 103  H3 d-1        0.0000000   -0.0030241    0.0592453    0.0000000    0.0533027
 104  H3 d+2       -0.0000000    0.0168214   -0.0380139   -0.0000000    0.0598772
 105  H3 d-2       -0.0072927   -0.0000000   -0.0000000   -0.0701302    0.0000000
 106  H3 d0         0.0000000   -0.1955427   -0.0739930   -0.0000000    0.1079106
 107  H3 d+1        0.2549910    0.0000000    0.0000000   -0.4718325    0.0000000
 108  H3 d-1        0.0000000   -0.1082730    0.2137460    0.0000000   -0.6588214
 109  H3 d+2        0.0000000   -0.1590296   -0.0950522   -0.0000000   -0.5679311
 110  H3 d-2        0.3467902    0.0000000    0.0000000    0.6554714    0.0000000
 111  H3 f0         0.0000000   -0.0349602    0.0043856    0.0000000    0.0222132
 112  H3 f+1        0.0156273   -0.0000000    0.0000000   -0.0049357    0.0000000
 113  H3 f-1        0.0000000   -0.0264619   -0.0017965   -0.0000000   -0.0333036
 114  H3 f+2        0.0000000   -0.0209182    0.0148375    0.0000000    0.0397147
 115  H3 f-2        0.0482144    0.0000000    0.0000000    0.0073903    0.0000000
 116  H3 f+3       -0.0458844   -0.0000000   -0.0000000   -0.0370611   -0.0000000
 117  H3 f-3        0.0000000   -0.0263297   -0.0023086    0.0000000   -0.0157825

            Ene     1.5921559    1.6437192    1.9844379    2.0695624    2.1753147
            Sym             A            A            A            A            A
            Occ             0            0            0            0            0


                           31           32           33           34           35

 1    O1 s0         0.0000000    0.0000000    0.0000000   -0.0000000    0.0041374
 2    O1 s0        -0.0000000   -0.0000000    0.0000000   -0.0000000    0.0007737
 3    O1 s0         0.0000000    0.0000000    0.0000000   -0.0000000    0.0047760
 4    O1 s0        -0.0000000   -0.0000000   -0.0000000   -0.0000000    0.0134495
 5    O1 s0         0.0000000    0.0000000   -0.0000000    0.0000000   -0.4459831
 6    O1 s0        -0.0000000   -0.0000000    0.0000000   -0.0000000    3.3649648
 7    O1 s0        -0.0000000   -0.0000000   -0.0000000   -0.0000000    3.9637133
 8    O1 p0        -0.0000000   -0.0000000    0.0000000   -0.0000000    0.0950636
 9    O1 p+1        0.0000000    0.0000000    0.0000000    0.0055730    0.0000000
 10   O1 p-1        0.0537631   -0.0000000    0.0754321   -0.0000000   -0.0000000
 11   O1 p0        -0.0000000   -0.0000000   -0.0000000    0.0000000   -0.2543141
 12   O1 p+1        0.0000000   -0.0000000   -0.0000000   -0.4064661   -0.0000000
 13   O1 p-1        0.6111470    0.0000000    0.3485516   -0.0000000   -0.0000000
 14   O1 p0         0.0000000    0.0000000    0.0000000    0.0000000   -0.8616084
 15   O1 p+1        0.0000000   -0.0000000   -0.0000000   -0.6422279   -0.0000000
 16   O1 p-1       -9.3496715    0.0000000   -6.7570606    0.0000000    0.0000000
 17   O1 p0         0.0000000    0.0000000    0.0000000    0.0000000   -0.0985546
 18   O1 p+1       -0.0000000   -0.0000000   -0.0000000   -0.5016479   -0.0000000
 19   O1 p-1       -0.7681036   -0.0000000   -0.4864272    0.0000000    0.0000000
 20   O1 d0        -0.0000000    0.0000000    0.0000000   -0.0000000    0.0282922
 21   O1 d+1        0.0000000   -0.0000000   -0.0000000   -0.0232899   -0.0000000
 22   O1 d-1        0.0131882    0.0000000   -0.0092628   -0.0000000    0.0000000
 23   O1 d+2        0.0000000    0.0000000    0.0000000   -0.0000000    0.0349060
 24   O1 d-2        0.0000000    0.0139154    0.0000000    0.0000000    0.0000000
 25   O1 d0        -0.0000000   -0.0000000   -0.0000000    0.0000000   -0.1167189
 26   O1 d+1       -0.0000000    0.0000000    0.0000000    0.1598678    0.0000000
 27   O1 d-1       -0.1040217   -0.0000000    0.0679687    0.0000000   -0.0000000
 28   O1 d+2       -0.0000000   -0.0000000   -0.0000000    0.0000000   -0.2583945
 29   O1 d-2        0.0000000   -0.1369820   -0.0000000    0.0000000   -0.0000000
 30   O1 d0        -0.0000000   -0.0000000   -0.0000000    0.0000000   -0.6468293
 31   O1 d+1       -0.0000000   -0.0000000    0.0000000    0.2354461    0.0000000
 32   O1 d-1        3.8827593    0.0000000    3.9289377   -0.0000000   -0.0000000
 33   O1 d+2        0.0000000    0.0000000    0.0000000    0.0000000   -0.7695836
 34   O1 d-2        0.0000000   -0.4466423    0.0000000   -0.0000000   -0.0000000
 35   O1 f0         0.0000000    0.0000000   -0.0000000   -0.0000000   -0.0126927
 36   O1 f+1        0.0000000    0.0000000    0.0000000    0.0089010    0.0000000
 37   O1 f-1        0.0262181   -0.0000000    0.0367731   -0.0000000   -0.0000000
 38   O1 f+2        0.0000000    0.0000000    0.0000000   -0.0000000    0.0119223
 39   O1 f-2       -0.0000000   -0.0080216   -0.0000000   -0.0000000   -0.0000000
 40   O1 f+3        0.0000000   -0.0000000   -0.0000000   -0.0132374   -0.0000000
 41   O1 f-3       -0.0234135   -0.0000000   -0.0015442    0.0000000    0.0000000
 42   O1 f0        -0.0000000   -0.0000000    0.0000000   -0.0000000    0.3033589
 43   O1 f+1       -0.0000000   -0.0000000   -0.0000000   -0.1355665   -0.0000000
 44   O1 f-1       -0.2027369   -0.0000000   -0.6356351    0.0000000    0.0000000
 45   O1 f+2       -0.0000000   -0.0000000    0.0000000   -0.0000000    0.1198596
 46   O1 f-2       -0.0000000    0.2063778    0.0000000    0.0000000    0.0000000
 47   O1 f+3       -0.0000000    0.0000000    0.0000000    0.2627546    0.0000000
 48   O1 f-3        0.2580409    0.0000000   -0.0182313    0.0000000    0.0000000
 49   O1 g0         0.0000000    0.0000000   -0.0000000    0.0000000   -0.0044524
 50   O1 g+1       -0.0000000   -0.0000000   -0.0000000   -0.0038519    0.0000000
 51   O1 g-1       -0.0089553    0.0000000    0.0459006   -0.0000000   -0.0000000
 52   O1 g+2        0.0000000    0.0000000    0.0000000    0.0000000    0.0075617
 53   O1 g-2        0.0000000    0.0027170    0.0000000   -0.0000000   -0.0000000
 54   O1 g+3        0.0000000   -0.0000000   -0.0000000   -0.0179684   -0.0000000
 55   O1 g-3       -0.0510166   -0.0000000   -0.0150685    0.0000000    0.0000000
 56   O1 g+4       -0.0000000   -0.0000000    0.0000000   -0.0000000    0.0118616
 57   O1 g-4       -0.0000000    0.0097211   -0.0000000    0.0000000    0.0000000
 58   H2 s0        -0.0429355    0.0000000   -0.0474548   -0.0000000    0.0286068
 59   H2 s0         4.0766270    0.0000000    3.8464312   -0.0000000   -0.8532010
 60   H2 s0         5.7460927    0.0000000    4.2598445   -0.0000000   -2.5449521
 61   H2 s0        -0.1981087    0.0000000   -0.0879174    0.0000000    0.0117882
 62   H2 p0        -0.0013696    0.0000000    0.0090355   -0.0000000   -0.0247017
 63   H2 p+1        0.0000000    0.0933930    0.0000000    0.0989968    0.0000000
 64   H2 p-1        0.0239469   -0.0000000    0.0401079   -0.0000000   -0.0494158
 65   H2 p0         0.3745646    0.0000000    0.2612537   -0.0000000    0.1030131
 66   H2 p+1       -0.0000000   -0.7133348   -0.0000000   -0.7935151   -0.0000000
 67   H2 p-1       -0.8460194   -0.0000000   -0.8660843    0.0000000    0.5106145
 68   H2 p0         2.2260998    0.0000000    1.3129039   -0.0000000   -1.7244747
 69   H2 p+1        0.0000000    0.8010407    0.0000000    1.1015263    0.0000000
 70   H2 p-1       -2.1391346   -0.0000000   -2.1644716    0.0000000    0.8144849
 71   H2 d0        -0.0544990    0.0000000    0.0519381   -0.0000000    0.0636068
 72   H2 d+1        0.0000000   -0.0655958   -0.0000000   -0.0499583   -0.0000000
 73   H2 d-1       -0.0443572   -0.0000000    0.0159909   -0.0000000   -0.0208410
 74   H2 d+2       -0.0101772   -0.0000000   -0.0540266    0.0000000    0.0140418
 75   H2 d-2        0.0000000   -0.0138820    0.0000000    0.0283070    0.0000000
 76   H2 d0         0.4288390   -0.0000000   -0.9748649    0.0000000   -0.8379667
 77   H2 d+1       -0.0000000    0.6349419    0.0000000    0.6014448    0.0000000
 78   H2 d-1        0.1046770    0.0000000   -0.4005552   -0.0000000    0.8570066
 79   H2 d+2       -0.0924335    0.0000000   -0.0941637   -0.0000000   -0.0008852
 80   H2 d-2       -0.0000000   -0.0352665   -0.0000000   -0.4632479   -0.0000000
[...]
 68   H2 p0        -0.0000000    0.3052163    0.0234571    0.3179985    0.5074648
 69   H2 p+1        0.1681196   -0.0000000    0.0000000    0.0000000    0.0000000
 70   H2 p-1        0.0000000   -0.6791222    0.1205859    0.0327607   -0.8214900
 71   H2 d0         0.0000000    0.1148561    0.2872684    0.6573722   -0.2655220
 72   H2 d+1       -0.0693718    0.0000000   -0.0000000    0.0000000    0.0000000
 73   H2 d-1        0.0000000   -0.1587033    0.1330370   -0.5284825   -0.1566601
 74   H2 d+2        0.0000000   -0.1682161    0.2857175    0.1534851   -0.3453854
 75   H2 d-2        0.0629348   -0.0000000    0.0000000   -0.0000000   -0.0000000
 76   H2 d0         0.0000000   -0.1600396    0.1514765    0.8395652   -0.3216862
 77   H2 d+1        0.1746707   -0.0000000   -0.0000000    0.0000000    0.0000000
 78   H2 d-1        0.0000000   -0.2454009    0.3663324   -0.6939018   -0.1158281
 79   H2 d+2        0.0000000   -0.4483805    0.4501887    0.0991979   -0.3534429
 80   H2 d-2       -0.2227512   -0.0000000    0.0000000   -0.0000000   -0.0000000
 81   H2 f0         0.0000000    0.0990757    0.2536807    0.1611610   -0.1295887
 82   H2 f+1       -0.0546405   -0.0000000   -0.0000000    0.0000000    0.0000000
 83   H2 f-1        0.0000000   -0.0653771   -0.1667262   -0.7274575    0.3363699
 84   H2 f+2        0.0000000   -0.0913765    0.2649131   -0.1916944    0.0152610
 85   H2 f-2        0.0949497    0.0000000    0.0000000   -0.0000000   -0.0000000
 86   H2 f+3        0.1162044   -0.0000000    0.0000000   -0.0000000   -0.0000000
 87   H2 f-3       -0.0000000    0.1092092   -0.2940447   -0.0874186    0.1412697
 88   H3 s0        -0.0000000   -0.6721229   -0.5076333    0.4402830    0.0238115
 89   H3 s0         0.0000000    2.0208411    0.1695786   -0.8345439    3.2961969
 90   H3 s0         0.0000000    1.3085765    0.0488790   -0.0706563    1.4769160
 91   H3 s0         0.0000000   -0.1093964    0.1165788   -0.0568436   -0.0122152
 92   H3 p0        -0.0000000   -0.1596342   -0.2411696    0.1745885    0.3133761
 93   H3 p+1        0.0332278    0.0000000   -0.0000000   -0.0000000   -0.0000000
 94   H3 p-1       -0.0000000   -0.4681013   -0.4071338    0.1254043    0.1926575
 95   H3 p0         0.0000000    0.4970797    0.2564869   -1.8875555    0.3495995
 96   H3 p+1       -0.3817564   -0.0000000   -0.0000000    0.0000000    0.0000000
 97   H3 p-1        0.0000000    1.5120250    1.0185980   -0.0628317    1.6281282
 98   H3 p0         0.0000000    0.3052163   -0.0234571   -0.3179985    0.5074648
 99   H3 p+1       -0.1681196   -0.0000000    0.0000000    0.0000000    0.0000000
 100  H3 p-1        0.0000000    0.6791222    0.1205859    0.0327607    0.8214900
 101  H3 d0        -0.0000000    0.1148561   -0.2872684   -0.6573722   -0.2655220
 102  H3 d+1        0.0693718    0.0000000   -0.0000000    0.0000000    0.0000000
 103  H3 d-1        0.0000000    0.1587033    0.1330370   -0.5284825    0.1566601
 104  H3 d+2       -0.0000000   -0.1682161   -0.2857175   -0.1534851   -0.3453854
 105  H3 d-2        0.0629348   -0.0000000   -0.0000000    0.0000000    0.0000000
 106  H3 d0        -0.0000000   -0.1600396   -0.1514765   -0.8395652   -0.3216862
 107  H3 d+1       -0.1746707   -0.0000000    0.0000000    0.0000000    0.0000000
 108  H3 d-1        0.0000000    0.2454009    0.3663324   -0.6939018    0.1158281
 109  H3 d+2       -0.0000000   -0.4483805   -0.4501887   -0.0991979   -0.3534429
 110  H3 d-2       -0.2227512   -0.0000000    0.0000000    0.0000000    0.0000000
 111  H3 f0        -0.0000000    0.0990757   -0.2536807   -0.1611610   -0.1295887
 112  H3 f+1        0.0546405   -0.0000000    0.0000000    0.0000000    0.0000000
 113  H3 f-1        0.0000000    0.0653771   -0.1667262   -0.7274575   -0.3363699
 114  H3 f+2       -0.0000000   -0.0913765   -0.2649131    0.1916944    0.0152610
 115  H3 f-2        0.0949497   -0.0000000   -0.0000000    0.0000000    0.0000000
 116  H3 f+3       -0.1162044    0.0000000    0.0000000   -0.0000000   -0.0000000
 117  H3 f-3       -0.0000000   -0.1092092   -0.2940447   -0.0874186   -0.1412697

            Ene    12.3998108   12.7136686   13.3317905   13.9837321   14.0864349
            Sym             A            A            A            A            A
            Occ             0            0            0            0            0


                          111          112          113          114          115

 1    O1 s0        -0.0000000    0.0000000    0.1501718   -0.0000000    0.2423808
 2    O1 s0         0.0000000   -0.0000000   -0.0999847    0.0000000   -0.1240667
 3    O1 s0        -0.0000000    0.0000000    0.8841328   -0.0000000    1.3979478
 4    O1 s0         0.0000000   -0.0000000   -2.1616106    0.0000000   -3.3833698
 5    O1 s0        -0.0000000    0.0000000    4.0285422   -0.0000000    0.9469803
 6    O1 s0         0.0000000   -0.0000000   -6.1453446   -0.0000000   12.9069749
 7    O1 s0         0.0000000   -0.0000000   -2.8213755   -0.0000000    4.8846186
 8    O1 p0         0.0000000    0.0000000   -0.1423837   -0.0000000    0.6856906
 9    O1 p+1        0.4311151    0.0000000   -0.0000000    0.0000000    0.0000000
 10   O1 p-1       -0.0000000   -0.0000000    0.0000000    1.1268707    0.0000000
 11   O1 p0        -0.0000000   -0.0000000    0.1441366    0.0000000   -5.8270401
 12   O1 p+1       -1.6397368   -0.0000000    0.0000000   -0.0000000   -0.0000000
 13   O1 p-1        0.0000000    0.0000000   -0.0000000   -8.4603643   -0.0000000
 14   O1 p0        -0.0000000    0.0000000    1.7340141    0.0000000   -3.0482048
 15   O1 p+1       -0.8791283   -0.0000000    0.0000000    0.0000000   -0.0000000
 16   O1 p-1       -0.0000000    0.0000000    0.0000000   -5.5725484   -0.0000000
 17   O1 p0        -0.0000000    0.0000000    0.0930797    0.0000000   -0.3538745
 18   O1 p+1        0.0833996    0.0000000    0.0000000    0.0000000   -0.0000000
 19   O1 p-1        0.0000000   -0.0000000    0.0000000   -0.4591044   -0.0000000
 20   O1 d0        -0.0000000   -0.0000000   -0.8475730    0.0000000   -0.0787838
 21   O1 d+1       -1.1921995   -0.0000000    0.0000000   -0.0000000   -0.0000000
 22   O1 d-1       -0.0000000    0.0000000   -0.0000000   -1.4191924   -0.0000000
 23   O1 d+2        0.0000000   -0.0000000   -1.1563692   -0.0000000    0.7079569
 24   O1 d-2       -0.0000000    1.3277278   -0.0000000    0.0000000   -0.0000000
 25   O1 d0         0.0000000    0.0000000    1.4770234   -0.0000000    0.2841500
 26   O1 d+1        1.7516698    0.0000000   -0.0000000    0.0000000    0.0000000
 27   O1 d-1       -0.0000000   -0.0000000    0.0000000    4.8029293    0.0000000
 28   O1 d+2       -0.0000000    0.0000000    1.8092561    0.0000000   -2.6512377
 29   O1 d-2        0.0000000   -2.1256589    0.0000000   -0.0000000    0.0000000
 30   O1 d0         0.0000000    0.0000000    0.6802751   -0.0000000    0.1759893
 31   O1 d+1        0.4432590    0.0000000   -0.0000000   -0.0000000    0.0000000
 32   O1 d-1        0.0000000   -0.0000000   -0.0000000    2.8084570    0.0000000
 33   O1 d+2       -0.0000000    0.0000000    1.4653169    0.0000000   -1.2880355
 34   O1 d-2       -0.0000000   -0.8121135    0.0000000   -0.0000000    0.0000000
 35   O1 f0        -0.0000000   -0.0000000   -0.0640193   -0.0000000    0.4029514
 36   O1 f+1       -0.1303970    0.0000000    0.0000000   -0.0000000   -0.0000000
 37   O1 f-1        0.0000000    0.0000000   -0.0000000   -0.5420121   -0.0000000
 38   O1 f+2       -0.0000000    0.0000000    0.0680973   -0.0000000    0.8534227
 39   O1 f-2       -0.0000000    0.3413179   -0.0000000    0.0000000   -0.0000000
 40   O1 f+3        0.3440377   -0.0000000   -0.0000000    0.0000000    0.0000000
 41   O1 f-3       -0.0000000   -0.0000000    0.0000000    0.4814277    0.0000000
 42   O1 f0         0.0000000   -0.0000000   -0.9350436   -0.0000000    0.4278919
 43   O1 f+1       -0.2954505   -0.0000000   -0.0000000   -0.0000000   -0.0000000
 44   O1 f-1       -0.0000000   -0.0000000   -0.0000000   -0.7400407   -0.0000000
 45   O1 f+2        0.0000000   -0.0000000   -0.9565413   -0.0000000    0.9297825
 46   O1 f-2        0.0000000    1.1524551   -0.0000000    0.0000000   -0.0000000
 47   O1 f+3        0.7904509    0.0000000   -0.0000000    0.0000000    0.0000000
 48   O1 f-3       -0.0000000   -0.0000000    0.0000000    0.7137616    0.0000000
 49   O1 g0        -0.0000000   -0.0000000    0.0870832    0.0000000   -0.2401092
 50   O1 g+1       -0.0505772    0.0000000    0.0000000    0.0000000   -0.0000000
 51   O1 g-1        0.0000000    0.0000000   -0.0000000   -0.1208542   -0.0000000
 52   O1 g+2       -0.0000000   -0.0000000   -0.1171206    0.0000000   -0.3261765
 53   O1 g-2       -0.0000000   -0.4951930    0.0000000   -0.0000000    0.0000000
 54   O1 g+3       -0.8209327   -0.0000000    0.0000000   -0.0000000   -0.0000000
 55   O1 g-3        0.0000000    0.0000000   -0.0000000   -0.5148507   -0.0000000
 56   O1 g+4        0.0000000   -0.0000000   -0.3304902   -0.0000000    0.1571065
 57   O1 g-4        0.0000000    0.5067981   -0.0000000    0.0000000   -0.0000000
 58   H2 s0         0.0000000    0.0000000    0.1049528   -1.0297006    0.9654724
 59   H2 s0        -0.0000000   -0.0000000    2.6389781    8.5086065   -6.9683940
 60   H2 s0        -0.0000000    0.0000000    1.4245936    3.6070798   -2.8656627
 61   H2 s0        -0.0000000   -0.0000000   -0.0053175    0.0033517    0.0062352
 62   H2 p0        -0.0000000   -0.0000000    0.0154517   -0.0183071    0.1594394
 63   H2 p+1       -0.1575921   -0.1770087    0.0000000   -0.0000000   -0.0000000
 64   H2 p-1        0.0000000    0.0000000   -0.3079130    0.0496313   -0.1895652
 65   H2 p0        -0.0000000    0.0000000    1.5524569    3.3798122   -3.0285732
 66   H2 p+1        1.2099919    1.3283950   -0.0000000    0.0000000    0.0000000
 67   H2 p-1        0.0000000    0.0000000   -0.2489095   -4.4053022    3.9498324
 68   H2 p0        -0.0000000    0.0000000    0.7116316    1.5440878   -1.2045250
 69   H2 p+1        0.2033449    0.2698785   -0.0000000    0.0000000    0.0000000
 70   H2 p-1        0.0000000   -0.0000000   -0.5330952   -2.0501580    1.5883935
 71   H2 d0         0.0000000    0.0000000    0.3243157    0.0883835   -0.0595659
 72   H2 d+1        0.3657764    0.3444148   -0.0000000    0.0000000    0.0000000
 73   H2 d-1        0.0000000    0.0000000   -0.2450494   -1.1042621    0.9280265
 74   H2 d+2        0.0000000    0.0000000    0.1350833   -0.7060490    0.6103554
 75   H2 d-2       -0.4769946   -0.4666801    0.0000000   -0.0000000   -0.0000000
 76   H2 d0         0.0000000    0.0000000    0.6198313    0.0905562   -0.0950254
 77   H2 d+1        0.4653934    0.5518276   -0.0000000    0.0000000    0.0000000
 78   H2 d-1        0.0000000    0.0000000   -0.3407324   -1.6187467    1.5427729
 79   H2 d+2        0.0000000    0.0000000    0.2450753   -1.0881131    1.0025808
 80   H2 d-2       -0.6100077   -0.6992679    0.0000000   -0.0000000   -0.0000000
 81   H2 f0         0.0000000    0.0000000    0.2339361   -0.2633308    0.2634485
 82   H2 f+1        0.1323103    0.1377279   -0.0000000    0.0000000    0.0000000
 83   H2 f-1       -0.0000000   -0.0000000   -0.3806444   -0.2952957    0.3257691
 84   H2 f+2        0.0000000    0.0000000    0.1293371   -0.5604905    0.5700083
 85   H2 f-2       -0.4875046   -0.5251100    0.0000000   -0.0000000   -0.0000000
 86   H2 f+3       -0.4135434   -0.3995441    0.0000000   -0.0000000   -0.0000000
 87   H2 f-3       -0.0000000   -0.0000000   -0.2433850    0.3195431   -0.2938543
 88   H3 s0        -0.0000000    0.0000000    0.1049528    1.0297006    0.9654724
 89   H3 s0        -0.0000000    0.0000000    2.6389781   -8.5086065   -6.9683940
 90   H3 s0        -0.0000000   -0.0000000    1.4245936   -3.6070798   -2.8656627
 91   H3 s0         0.0000000   -0.0000000   -0.0053175   -0.0033517    0.0062352
 92   H3 p0        -0.0000000   -0.0000000    0.0154517    0.0183071    0.1594394
 93   H3 p+1       -0.1575921    0.1770087   -0.0000000    0.0000000   -0.0000000
 94   H3 p-1       -0.0000000    0.0000000    0.3079130    0.0496313    0.1895652
 95   H3 p0         0.0000000    0.0000000    1.5524569   -3.3798122   -3.0285732
 96   H3 p+1        1.2099919   -1.3283950    0.0000000   -0.0000000    0.0000000
 97   H3 p-1       -0.0000000   -0.0000000    0.2489095   -4.4053022   -3.9498324
 98   H3 p0        -0.0000000   -0.0000000    0.7116316   -1.5440878   -1.2045250
 99   H3 p+1        0.2033449   -0.2698785    0.0000000   -0.0000000    0.0000000
 100  H3 p-1       -0.0000000   -0.0000000    0.5330952   -2.0501580   -1.5883935
 101  H3 d0         0.0000000    0.0000000    0.3243157   -0.0883835   -0.0595659
 102  H3 d+1        0.3657764   -0.3444148    0.0000000    0.0000000    0.0000000
 103  H3 d-1        0.0000000    0.0000000    0.2450494   -1.1042621   -0.9280265
 104  H3 d+2        0.0000000    0.0000000    0.1350833    0.7060490    0.6103554
 105  H3 d-2        0.4769946   -0.4666801    0.0000000    0.0000000    0.0000000
 106  H3 d0         0.0000000    0.0000000    0.6198313   -0.0905562   -0.0950254
 107  H3 d+1        0.4653934   -0.5518276    0.0000000   -0.0000000    0.0000000
 108  H3 d-1        0.0000000   -0.0000000    0.3407324   -1.6187467   -1.5427729
 109  H3 d+2        0.0000000    0.0000000    0.2450753    1.0881131    1.0025808
 110  H3 d-2        0.6100077   -0.6992679    0.0000000   -0.0000000    0.0000000
 111  H3 f0         0.0000000    0.0000000    0.2339361    0.2633308    0.2634485
 112  H3 f+1        0.1323103   -0.1377279    0.0000000   -0.0000000    0.0000000
 113  H3 f-1        0.0000000    0.0000000    0.3806444   -0.2952956   -0.3257691
 114  H3 f+2       -0.0000000    0.0000000    0.1293371    0.5604905    0.5700083
 115  H3 f-2        0.4875046   -0.5251100    0.0000000   -0.0000000    0.0000000
 116  H3 f+3       -0.4135434    0.3995441   -0.0000000    0.0000000   -0.0000000
 117  H3 f-3        0.0000000    0.0000000    0.2433850    0.3195431    0.2938543

            Ene    14.1617632   14.5855696   14.9481450   17.1562371   17.1568953
            Sym             A            A            A            A            A
            Occ             0            0            0            0            0


                         116          117

 1    O1 s0         0.0532099    7.5617012
 2    O1 s0         2.1463418   -8.6852406
 3    O1 s0        -5.1821756    2.5792206
 4    O1 s0         4.9864108   -2.2475465
 5    O1 s0        -3.1480520    1.4050118
 6    O1 s0         0.4489890   -0.3720703
 7    O1 s0         0.2279101   -0.2025777
 8    O1 p0        -0.0425143    0.0108083
 9    O1 p+1       -0.0000000    0.0000000
 10   O1 p-1        0.0000000   -0.0000000
 11   O1 p0         0.8646116   -0.3222247
 12   O1 p+1        0.0000000   -0.0000000
 13   O1 p-1       -0.0000000    0.0000000
 14   O1 p0        -0.5333525    0.3020620
 15   O1 p+1        0.0000000   -0.0000000
 16   O1 p-1       -0.0000000    0.0000000
 17   O1 p0         0.0493524   -0.0156957
 18   O1 p+1        0.0000000   -0.0000000
 19   O1 p-1       -0.0000000    0.0000000
 20   O1 d0         0.0144202   -0.0050949
 21   O1 d+1        0.0000000   -0.0000000
 22   O1 d-1       -0.0000000    0.0000000
 23   O1 d+2       -0.0320484    0.0092552
 24   O1 d-2        0.0000000   -0.0000000
 25   O1 d0        -0.0682629    0.0260541
 26   O1 d+1       -0.0000000    0.0000000
 27   O1 d-1        0.0000000   -0.0000000
 28   O1 d+2        0.3084812   -0.1111663
 29   O1 d-2       -0.0000000    0.0000000
 30   O1 d0         0.0351149   -0.0198866
 31   O1 d+1       -0.0000000    0.0000000
 32   O1 d-1        0.0000000   -0.0000000
 33   O1 d+2       -0.1954583    0.1133471
 34   O1 d-2       -0.0000000    0.0000000
 35   O1 f0        -0.0529530    0.0196323
 36   O1 f+1       -0.0000000    0.0000000
 37   O1 f-1       -0.0000000    0.0000000
 38   O1 f+2       -0.1307381    0.0488937
 39   O1 f-2       -0.0000000    0.0000000
 40   O1 f+3       -0.0000000   -0.0000000
 41   O1 f-3        0.0000000   -0.0000000
 42   O1 f0         0.0102125   -0.0110374
 43   O1 f+1        0.0000000   -0.0000000
 44   O1 f-1       -0.0000000    0.0000000
 45   O1 f+2        0.0478507   -0.0358418
 46   O1 f-2        0.0000000   -0.0000000
 47   O1 f+3       -0.0000000    0.0000000
 48   O1 f-3        0.0000000   -0.0000000
 49   O1 g0         0.0291220   -0.0097845
 50   O1 g+1       -0.0000000    0.0000000
 51   O1 g-1       -0.0000000    0.0000000
 52   O1 g+2        0.0370038   -0.0121887
 53   O1 g-2       -0.0000000    0.0000000
 54   O1 g+3        0.0000000   -0.0000000
 55   O1 g-3       -0.0000000    0.0000000
 56   O1 g+4       -0.0070281    0.0016549
 57   O1 g-4        0.0000000   -0.0000000
 58   H2 s0        -0.1400816    0.0514019
 59   H2 s0         0.3200735   -0.0475580
 60   H2 s0        -0.1653783    0.1282715
 61   H2 s0         0.0381701   -0.0175872
 62   H2 p0        -0.0469809    0.0205424
 63   H2 p+1       -0.0000000    0.0000000
 64   H2 p-1        0.0422972   -0.0184485
 65   H2 p0         0.3232086   -0.1089316
 66   H2 p+1        0.0000000   -0.0000000
 67   H2 p-1       -0.4081288    0.1346164
 68   H2 p0        -0.0100663    0.0240113
 69   H2 p+1        0.0000000   -0.0000000
 70   H2 p-1        0.0085697   -0.0302510
 71   H2 d0         0.0004974    0.0000808
 72   H2 d+1        0.0000000   -0.0000000
 73   H2 d-1       -0.1292791    0.0462930
 74   H2 d+2       -0.0896519    0.0323700
 75   H2 d-2       -0.0000000   -0.0000000
 76   H2 d0        -0.0007616    0.0009602
 77   H2 d+1        0.0000000   -0.0000000
 78   H2 d-1       -0.2670960    0.1036946
 79   H2 d+2       -0.1670555    0.0637718
 80   H2 d-2       -0.0000000    0.0000000
 81   H2 f0        -0.0760607    0.0312751
 82   H2 f+1        0.0000000   -0.0000000
 83   H2 f-1       -0.0674140    0.0277996
 84   H2 f+2       -0.1424588    0.0587266
 85   H2 f-2       -0.0000000    0.0000000
 86   H2 f+3       -0.0000000    0.0000000
 87   H2 f-3        0.0760707   -0.0313092
 88   H3 s0        -0.1400816    0.0514019
 89   H3 s0         0.3200735   -0.0475580
 90   H3 s0        -0.1653783    0.1282715
 91   H3 s0         0.0381701   -0.0175872
 92   H3 p0        -0.0469809    0.0205424
 93   H3 p+1        0.0000000   -0.0000000
 94   H3 p-1       -0.0422972    0.0184485
 95   H3 p0         0.3232086   -0.1089316
 96   H3 p+1       -0.0000000    0.0000000
 97   H3 p-1        0.4081288   -0.1346164
 98   H3 p0        -0.0100663    0.0240113
 99   H3 p+1       -0.0000000    0.0000000
 100  H3 p-1       -0.0085697    0.0302510
 101  H3 d0         0.0004974    0.0000808
 102  H3 d+1       -0.0000000    0.0000000
 103  H3 d-1        0.1292791   -0.0462930
 104  H3 d+2       -0.0896519    0.0323700
 105  H3 d-2       -0.0000000    0.0000000
 106  H3 d0        -0.0007616    0.0009602
 107  H3 d+1       -0.0000000    0.0000000
 108  H3 d-1        0.2670960   -0.1036946
 109  H3 d+2       -0.1670555    0.0637718
 110  H3 d-2       -0.0000000    0.0000000
 111  H3 f0        -0.0760607    0.0312751
 112  H3 f+1       -0.0000000    0.0000000
 113  H3 f-1        0.0674140   -0.0277996
 114  H3 f+2       -0.1424588    0.0587266
 115  H3 f-2       -0.0000000    0.0000000
 116  H3 f+3        0.0000000   -0.0000000
 117  H3 f-3       -0.0760707    0.0313092

            Ene    49.5064454  256.3430405
            Sym             A            A
            Occ             0            0


*** tstop() called on luke-pc at Fri Nov 17 17:48:42 2017
Module time:
	user time   =       4.19 seconds =       0.07 minutes
	system time =       1.87 seconds =       0.03 minutes
	total time  =          5 seconds =       0.08 minutes
Total time:
	user time   =       4.19 seconds =       0.07 minutes
	system time =       1.87 seconds =       0.03 minutes
	total time  =          5 seconds =       0.08 minutes

*** Psi4 exiting successfully. Buy a developer a beer!
