
    -----------------------------------------------------------------------
          Psi4: An Open-Source Ab Initio Electronic Structure Package
                               Psi4 1.2a1.dev547 

                         Git: Rev {master} f5560a0 


    R. M. Parrish, L. A. Burns, D. G. A. Smith, A. C. Simmonett,
    A. E. DePrince III, E. G. Hohenstein, U. Bozkaya, A. Yu. Sokolov,
    R. Di Remigio, R. M. Richard, J. F. Gonthier, A. M. James,
    H. R. McAlexander, A. Kumar, M. Saitow, X. Wang, B. P. Pritchard,
    P. Verma, H. F. Schaefer III, K. Patkowski, R. A. King, E. F. Valeev,
    F. A. Evangelista, J. M. Turney, T. D. Crawford, and C. D. Sherrill,
    J. Chem. Theory Comput. 13(7) pp 3185--3197 (2017).
    (doi: 10.1021/acs.jctc.7b00174)

    -----------------------------------------------------------------------


    Psi4 started on: Monday, 20 November 2017 03:16PM

    Process ID:   2458
    PSIDATADIR: /home/luke/Projects/psi4_build/psi_5/share/psi4
    Memory:     500.0 MiB
    Threads:    1
    
  ==> Input File <==

--------------------------------------------------------------------------

# PYTHONPATH must include directory above plugin directory.
#     Define either externally or here, then import plugin.
sys.path.insert(0, './..')
import syshfwplug


plugin_load("./syshfwplug.so")


molecule {
O  0.0 0.0 0.0 
H  1.0 1.0 0.0
H -1.0 1.0 0.0
symmetry c1
}

set {
  basis def2-qzvpp
}

set syshfwplug {
  pref mytest
  do_tei 1
  print 1
}

set scf reference uhf
set scf_type pk
set scf PRINT_MOS  true


e_scf,ref_wfn = energy('mp2',return_wfn=True)


plugin("syshfwplug.so", ref_wfn)
#syshfwplug.exampleFN(ref_wfn)
--------------------------------------------------------------------------
/home/luke/Projects/MP2-Project/src/syshfwplug/syshfwplug.so loaded.

*** tstart() called on luke-pc
*** at Mon Nov 20 15:16:36 2017

   => Loading Basis Set <=

    Name: DEF2-QZVPP
    Role: ORBITAL
    Keyword: BASIS
    atoms 1   entry O          line   290 file /home/luke/Projects/psi4_build/psi_5/share/psi4/basis/def2-qzvpp.gbs 
    atoms 2-3 entry H          line    15 file /home/luke/Projects/psi4_build/psi_5/share/psi4/basis/def2-qzvpp.gbs 

    There are an even number of electrons - assuming singlet.
    Specify the multiplicity in the molecule input block.


         ---------------------------------------------------------
                                   SCF
            by Justin Turney, Rob Parrish, Andy Simmonett
                             and Daniel Smith
                              UHF Reference
                        1 Threads,    500 MiB Core
         ---------------------------------------------------------

  ==> Geometry <==

    Molecular point group: c1
    Full point group: C2v

    Geometry (in Angstrom), charge = 0, multiplicity = 1:

       Center              X                  Y                   Z               Mass       
    ------------   -----------------  -----------------  -----------------  -----------------
           O          0.000000000000     0.000000000000    -0.111914873272    15.994914619560
           H          1.000000000000     0.000000000000     0.888085126728     1.007825032070
           H         -1.000000000000     0.000000000000     0.888085126728     1.007825032070

  Running in c1 symmetry.

  Rotational constants: A =      9.41731  B =      8.36337  C =      4.42955 [cm^-1]
  Rotational constants: A = 282323.78161  B = 250727.55137  C = 132794.62235 [MHz]
  Nuclear repulsion =    6.251545286588714

  Charge       = 0
  Multiplicity = 1
  Electrons    = 10
  Nalpha       = 5
  Nbeta        = 5

  ==> Algorithm <==

  SCF Algorithm Type is PK.
  DIIS enabled.
  MOM disabled.
  Fractional occupation disabled.
  Guess Type is GWH.
  Energy threshold   = 1.00e-08
  Density threshold  = 1.00e-08
  Integral threshold = 0.00e+00

  ==> Primary Basis <==

  Basis Set: DEF2-QZVPP
    Blend: DEF2-QZVPP
    Number of shells: 37
    Number of basis function: 117
    Number of Cartesian functions: 142
    Spherical Harmonics?: true
    Max angular momentum: 4

  ==> Pre-Iterations <==

   -------------------------------------------------------
    Irrep   Nso     Nmo     Nalpha   Nbeta   Ndocc  Nsocc
   -------------------------------------------------------
     A        117     117       0       0       0       0
   -------------------------------------------------------
    Total     117     117       5       5       5       0
   -------------------------------------------------------

  ==> Integral Setup <==

  Using integral reordering PK algorithm.
  Sizing the integral batches needed.
  Building batch lookup table.
   Calculation information:
      Number of atoms:                   3
      Number of AO shells:              37
      Number of primitives:             55
      Number of atomic orbitals:       142
      Number of basis functions:       117

      Integral cutoff                 1.00e-12
      Number of threads:                 1

	Batch   1 pq = [       0,    6903] index = [             0,23829156] size =     23829156
  Task number: 3
  Buffer size: 11059200
  Buffer per thread: 2
  We computed 288986 shell quartets total.
  Whereas there are 247456 unique shell quartets.
    16.78 percent of shell quartets recomputed by reordering.
  ==> DiskJK: Disk-Based J/K Matrices <==

    J tasked:                  Yes
    K tasked:                  Yes
    wK tasked:                  No
    Memory (MB):               375
    Schwarz Cutoff:          1E-12

    OpenMP threads:              1
  Minimum eigenvalue in the overlap matrix is 2.7558359837E-03.
  Using Symmetric Orthogonalization.

  SCF Guess: Generalized Wolfsberg-Helmholtz.

  ==> Iterations <==

                        Total Energy        Delta E     RMS |[F,P]|

   @UHF iter   1:   -54.24791102928426   -5.42479e+01   1.98639e-01 
   @UHF iter   2:   -64.09734348090095   -9.84943e+00   2.10328e-02 DIIS
   @UHF iter   3:   -69.69001902291100   -5.59268e+00   3.92756e-02 DIIS
   @UHF iter   4:   -72.47469215681346   -2.78467e+00   2.64427e-02 DIIS
   @UHF iter   5:   -74.87116151326909   -2.39647e+00   1.27728e-02 DIIS
   @UHF iter   6:   -75.72176895403881   -8.50607e-01   4.56057e-03 DIIS
   @UHF iter   7:   -75.86394931287498   -1.42180e-01   4.81720e-04 DIIS
   @UHF iter   8:   -75.86562144534689   -1.67213e-03   1.05324e-04 DIIS
   @UHF iter   9:   -75.86589236901472   -2.70924e-04   3.73570e-05 DIIS
   @UHF iter  10:   -75.86591446231743   -2.20933e-05   1.61888e-05 DIIS
   @UHF iter  11:   -75.86591777398836   -3.31167e-06   5.30303e-06 DIIS
   @UHF iter  12:   -75.86591855942883   -7.85440e-07   2.21294e-06 DIIS
   @UHF iter  13:   -75.86591868543768   -1.26009e-07   6.41138e-07 DIIS
   @UHF iter  14:   -75.86591869056781   -5.13013e-09   4.21946e-08 DIIS
   @UHF iter  15:   -75.86591869059301   -2.51958e-11   9.26210e-09 DIIS

  ==> Post-Iterations <==

   @Spin Contamination Metric:  -1.598721155E-14
   @S^2 Expected:                0.000000000E+00
   @S^2 Observed:               -1.598721155E-14
   @S   Expected:                0.000000000E+00
   @S   Observed:                0.000000000E+00

    Orbital Energies (a.u.)
    -----------------------

    Alpha Occupied:                                                       

       1A    -20.629884     2A     -1.228173     3A     -0.525463  
       4A     -0.515427     5A     -0.502544  

    Alpha Virtual:                                                        

       6A      0.046921     7A      0.087895     8A      0.274726  
       9A      0.304302    10A      0.377456    11A      0.380287  
      12A      0.464282    13A      0.516761    14A      0.614663  
      15A      0.632358    16A      0.767282    17A      0.786068  
      18A      0.918536    19A      0.941236    20A      1.159282  
      21A      1.201654    22A      1.377550    23A      1.402162  
      24A      1.424138    25A      1.512282    26A      1.607063  
      27A      1.614373    28A      1.887747    29A      1.905932  
      30A      1.974486    31A      2.013253    32A      2.163115  
      33A      2.186612    34A      2.350272    35A      2.351958  
      36A      2.368330    37A      2.422144    38A      2.501189  
      39A      2.534263    40A      2.561079    41A      2.631115  
      42A      2.734052    43A      2.929726    44A      2.966119  
      45A      3.040052    46A      3.556430    47A      3.596860  
      48A      3.814647    49A      3.837161    50A      3.842424  
      51A      3.914036    52A      4.224940    53A      4.274380  
      54A      4.394634    55A      4.405030    56A      4.434742  
      57A      4.587833    58A      4.619661    59A      5.373671  
      60A      5.378915    61A      5.433270    62A      5.961460  
      63A      6.003719    64A      6.006608    65A      6.028085  
      66A      6.033292    67A      6.071177    68A      6.086573  
      69A      6.250880    70A      6.254681    71A      6.277285  
      72A      6.607456    73A      6.643922    74A      6.684109  
      75A      6.955165    76A      7.086219    77A      7.137825  
      78A      7.793755    79A      7.811076    80A      7.833449  
      81A      7.944669    82A      8.069366    83A      8.099429  
      84A      8.195779    85A      8.196249    86A      8.375567  
      87A      8.434670    88A      8.451832    89A      8.459405  
      90A      8.467979    91A      8.865687    92A      9.200952  
      93A      9.238803    94A      9.447223    95A      9.455662  
      96A      9.494566    97A      9.631439    98A      9.968290  
      99A     10.015364   100A     10.139716   101A     10.280709  
     102A     10.668665   103A     11.619304   104A     11.805125  
     105A     11.864011   106A     11.894407   107A     12.056425  
     108A     12.293637   109A     12.624082   110A     12.645279  
     111A     12.688536   112A     12.711061   113A     12.925986  
     114A     13.470085   115A     14.036151   116A     48.515260  
     117A    255.244664  

    Beta Occupied:                                                        

       1A    -20.629884     2A     -1.228173     3A     -0.525463  
       4A     -0.515427     5A     -0.502544  

    Beta Virtual:                                                         

       6A      0.046921     7A      0.087895     8A      0.274726  
       9A      0.304302    10A      0.377456    11A      0.380287  
      12A      0.464282    13A      0.516761    14A      0.614663  
      15A      0.632358    16A      0.767282    17A      0.786068  
      18A      0.918536    19A      0.941236    20A      1.159282  
      21A      1.201654    22A      1.377550    23A      1.402162  
      24A      1.424138    25A      1.512282    26A      1.607063  
      27A      1.614373    28A      1.887747    29A      1.905932  
      30A      1.974486    31A      2.013253    32A      2.163115  
      33A      2.186612    34A      2.350272    35A      2.351958  
      36A      2.368330    37A      2.422144    38A      2.501189  
      39A      2.534263    40A      2.561079    41A      2.631115  
      42A      2.734052    43A      2.929726    44A      2.966119  
      45A      3.040052    46A      3.556430    47A      3.596860  
      48A      3.814647    49A      3.837161    50A      3.842424  
      51A      3.914036    52A      4.224940    53A      4.274380  
      54A      4.394634    55A      4.405030    56A      4.434742  
      57A      4.587833    58A      4.619661    59A      5.373671  
      60A      5.378915    61A      5.433270    62A      5.961460  
      63A      6.003719    64A      6.006608    65A      6.028085  
      66A      6.033292    67A      6.071177    68A      6.086573  
      69A      6.250880    70A      6.254681    71A      6.277285  
      72A      6.607456    73A      6.643922    74A      6.684109  
      75A      6.955165    76A      7.086219    77A      7.137825  
      78A      7.793755    79A      7.811076    80A      7.833449  
      81A      7.944669    82A      8.069366    83A      8.099429  
      84A      8.195779    85A      8.196249    86A      8.375567  
      87A      8.434670    88A      8.451832    89A      8.459405  
      90A      8.467979    91A      8.865687    92A      9.200952  
      93A      9.238803    94A      9.447223    95A      9.455662  
      96A      9.494566    97A      9.631439    98A      9.968290  
      99A     10.015364   100A     10.139716   101A     10.280709  
     102A     10.668665   103A     11.619304   104A     11.805125  
     105A     11.864011   106A     11.894407   107A     12.056425  
     108A     12.293637   109A     12.624082   110A     12.645279  
     111A     12.688536   112A     12.711061   113A     12.925986  
     114A     13.470085   115A     14.036151   116A     48.515260  
     117A    255.244664  

    Final Occupation by Irrep:
              A 
    DOCC [     5 ]
    SOCC [     0 ]

  Energy converged.

  @UHF Final Energy:   -75.86591869059301

   => Energetics <=

    Nuclear Repulsion Energy =              6.2515452865887138
    One-Electron Energy =                -117.4319492085719077
    Two-Electron Energy =                  35.3144852313901936
    Total Energy =                        -75.8659186905930056


  UHF NO Occupations:
  HONO-2 :    3  A 2.0000000
  HONO-1 :    4  A 2.0000000
  HONO-0 :    5  A 2.0000000
  LUNO+0 :    6  A 0.0000000
  LUNO+1 :    7  A 0.0000000
  LUNO+2 :    8  A 0.0000000
  LUNO+3 :    9  A 0.0000000



Properties will be evaluated at   0.000000,   0.000000,   0.000000 Bohr

Properties computed using the SCF density matrix

  Nuclear Dipole Moment: (a.u.)
     X:     0.0000      Y:     0.0000      Z:     1.6646

  Electronic Dipole Moment: (a.u.)
     X:     0.0000      Y:    -0.0000      Z:    -0.6651

  Dipole Moment: (a.u.)
     X:     0.0000      Y:    -0.0000      Z:     0.9994     Total:     0.9994

  Dipole Moment: (Debye)
     X:     0.0000      Y:    -0.0000      Z:     2.5403     Total:     2.5403


  ==> Alpha-Spin Molecular Orbitals <==

                            1            2            3            4            5

 1    O1 s0         0.5606679    0.1229929    0.0000000    0.0279852   -0.0000000
 2    O1 s0         0.0000497    0.0188010    0.0000000    0.0046532    0.0000000
 3    O1 s0         0.3664566    0.1535660    0.0000000    0.0356658   -0.0000000
 4    O1 s0         0.1623697    0.0724158    0.0000000    0.0180800    0.0000000
 5    O1 s0         0.0113011   -0.3079545   -0.0000000   -0.0871981   -0.0000000
 6    O1 s0        -0.0017068   -0.5331548   -0.0000000   -0.1295735   -0.0000000
 7    O1 s0         0.0008738   -0.2448332   -0.0000000   -0.1467464   -0.0000000
 8    O1 p0         0.0017277   -0.0051002    0.0000000    0.2609200    0.0000000
 9    O1 p+1        0.0000000   -0.0000000    0.2613235   -0.0000000    0.0000000
 10   O1 p-1       -0.0000000    0.0000000   -0.0000000   -0.0000000    0.3597502
 11   O1 p0        -0.0014078   -0.0105400    0.0000000    0.2619667    0.0000000
 12   O1 p+1        0.0000000    0.0000000    0.2607759   -0.0000000    0.0000000
 13   O1 p-1        0.0000000   -0.0000000    0.0000000   -0.0000000    0.3500262
 14   O1 p0         0.0006090   -0.0139741    0.0000000    0.2419147   -0.0000000
 15   O1 p+1       -0.0000000   -0.0000000    0.2534085   -0.0000000    0.0000000
 16   O1 p-1       -0.0000000    0.0000000   -0.0000000    0.0000000    0.3319931
 17   O1 p0        -0.0000794    0.0004468    0.0000000    0.1256168    0.0000000
 18   O1 p+1       -0.0000000    0.0000000    0.1068413   -0.0000000    0.0000000
 19   O1 p-1        0.0000000   -0.0000000    0.0000000   -0.0000000    0.1782931
 20   O1 d0         0.0000431    0.0002333   -0.0000000    0.0015884    0.0000000
 21   O1 d+1       -0.0000000   -0.0000000    0.0022806   -0.0000000    0.0000000
 22   O1 d-1       -0.0000000    0.0000000   -0.0000000   -0.0000000    0.0014733
 23   O1 d+2        0.0000486    0.0004622   -0.0000000    0.0007186    0.0000000
 24   O1 d-2        0.0000000   -0.0000000    0.0000000    0.0000000    0.0000000
 25   O1 d0        -0.0002238   -0.0008275    0.0000000    0.0056624   -0.0000000
 26   O1 d+1        0.0000000    0.0000000    0.0116337   -0.0000000   -0.0000000
 27   O1 d-1        0.0000000   -0.0000000   -0.0000000    0.0000000    0.0040733
 28   O1 d+2       -0.0003225   -0.0017197    0.0000000    0.0034623   -0.0000000
 29   O1 d-2        0.0000000   -0.0000000   -0.0000000   -0.0000000    0.0000000
 30   O1 d0         0.0000526   -0.0016629   -0.0000000    0.0132583   -0.0000000
 31   O1 d+1       -0.0000000   -0.0000000    0.0232112    0.0000000    0.0000000
 32   O1 d-1        0.0000000    0.0000000    0.0000000    0.0000000    0.0114924
 33   O1 d+2       -0.0000619   -0.0022536   -0.0000000    0.0067155   -0.0000000
 34   O1 d-2        0.0000000   -0.0000000    0.0000000   -0.0000000   -0.0000000
 35   O1 f0        -0.0000160    0.0000282   -0.0000000    0.0003501   -0.0000000
 36   O1 f+1        0.0000000   -0.0000000    0.0004842    0.0000000    0.0000000
 37   O1 f-1        0.0000000    0.0000000    0.0000000    0.0000000    0.0007237
 38   O1 f+2        0.0000261   -0.0000338    0.0000000    0.0008519    0.0000000
 39   O1 f-2       -0.0000000    0.0000000    0.0000000   -0.0000000    0.0000000
 40   O1 f+3        0.0000000    0.0000000    0.0007104   -0.0000000   -0.0000000
 41   O1 f-3       -0.0000000   -0.0000000   -0.0000000   -0.0000000    0.0008840
 42   O1 f0         0.0000464    0.0004456    0.0000000    0.0015779    0.0000000
 43   O1 f+1       -0.0000000    0.0000000    0.0027346    0.0000000    0.0000000
 44   O1 f-1        0.0000000   -0.0000000    0.0000000    0.0000000    0.0025415
 45   O1 f+2       -0.0000962   -0.0022972   -0.0000000    0.0031629   -0.0000000
 46   O1 f-2        0.0000000    0.0000000   -0.0000000   -0.0000000    0.0000000
 47   O1 f+3       -0.0000000   -0.0000000    0.0034469   -0.0000000    0.0000000
 48   O1 f-3        0.0000000    0.0000000    0.0000000    0.0000000    0.0032826
 49   O1 g0         0.0000179    0.0001702    0.0000000   -0.0000220   -0.0000000
 50   O1 g+1       -0.0000000   -0.0000000    0.0000434   -0.0000000    0.0000000
 51   O1 g-1       -0.0000000   -0.0000000    0.0000000   -0.0000000    0.0000669
 52   O1 g+2       -0.0000290   -0.0003243   -0.0000000    0.0003049   -0.0000000
 53   O1 g-2        0.0000000    0.0000000    0.0000000    0.0000000   -0.0000000
 54   O1 g+3       -0.0000000   -0.0000000    0.0004195    0.0000000    0.0000000
 55   O1 g-3        0.0000000   -0.0000000   -0.0000000    0.0000000    0.0001915
 56   O1 g+4       -0.0000113   -0.0000818   -0.0000000    0.0000839    0.0000000
 57   O1 g-4       -0.0000000   -0.0000000   -0.0000000    0.0000000   -0.0000000
 58   H2 s0        -0.0000378   -0.0187775    0.0562650    0.0522220    0.0000000
 59   H2 s0         0.0001202   -0.0387905    0.1168930    0.1081253    0.0000000
 60   H2 s0         0.0000709   -0.0299257    0.1734720    0.1684088   -0.0000000
 61   H2 s0        -0.0000509   -0.0037867    0.0638415    0.0482602   -0.0000000
 62   H2 p0         0.0000719    0.0008093   -0.0014950    0.0002224   -0.0000000
 63   H2 p+1        0.0000555    0.0009171   -0.0006628   -0.0013465    0.0000000
 64   H2 p-1       -0.0000000   -0.0000000    0.0000000    0.0000000    0.0013296
 65   H2 p0        -0.0001925    0.0054887   -0.0077952   -0.0045761    0.0000000
 66   H2 p+1       -0.0001446    0.0054382   -0.0038122   -0.0070323    0.0000000
 67   H2 p-1       -0.0000000    0.0000000    0.0000000   -0.0000000    0.0036180
 68   H2 p0        -0.0000321    0.0043750   -0.0188507    0.0010167    0.0000000
 69   H2 p+1       -0.0000062    0.0051292   -0.0084560   -0.0241719    0.0000000
 70   H2 p-1        0.0000000   -0.0000000   -0.0000000    0.0000000    0.0191815
 71   H2 d0        -0.0000101   -0.0001338    0.0002904   -0.0000213   -0.0000000
 72   H2 d+1       -0.0000152   -0.0005267    0.0005945    0.0004390   -0.0000000
 73   H2 d-1       -0.0000000    0.0000000    0.0000000   -0.0000000   -0.0001807
 74   H2 d+2       -0.0000078   -0.0002663    0.0001127    0.0000854   -0.0000000
 75   H2 d-2       -0.0000000    0.0000000    0.0000000   -0.0000000   -0.0000563
 76   H2 d0         0.0000939   -0.0005315    0.0027633   -0.0012626    0.0000000
 77   H2 d+1        0.0001971   -0.0016107    0.0030701    0.0022675   -0.0000000
 78   H2 d-1        0.0000000    0.0000000    0.0000000    0.0000000   -0.0028648
 79   H2 d+2        0.0000829   -0.0008804    0.0008751    0.0040142   -0.0000000
 80   H2 d-2        0.0000000   -0.0000000    0.0000000   -0.0000000   -0.0035215
 81   H2 f0         0.0000172   -0.0000504   -0.0001681    0.0002756   -0.0000000
 82   H2 f+1       -0.0000651    0.0001841   -0.0007400   -0.0000226   -0.0000000
 83   H2 f-1       -0.0000000   -0.0000000   -0.0000000   -0.0000000    0.0002679
 84   H2 f+2       -0.0000653    0.0001788   -0.0004606   -0.0004451   -0.0000000
 85   H2 f-2       -0.0000000    0.0000000   -0.0000000    0.0000000    0.0005078
 86   H2 f+3       -0.0000272    0.0001097   -0.0001248   -0.0004143    0.0000000
 87   H2 f-3       -0.0000000   -0.0000000    0.0000000   -0.0000000    0.0003650
 88   H3 s0        -0.0000378   -0.0187775   -0.0562650    0.0522220    0.0000000
 89   H3 s0         0.0001202   -0.0387905   -0.1168930    0.1081253   -0.0000000
 90   H3 s0         0.0000709   -0.0299257   -0.1734720    0.1684088    0.0000000
 91   H3 s0        -0.0000509   -0.0037867   -0.0638415    0.0482602    0.0000000
 92   H3 p0         0.0000719    0.0008093    0.0014950    0.0002224    0.0000000
 93   H3 p+1       -0.0000555   -0.0009171   -0.0006628    0.0013465   -0.0000000
 94   H3 p-1        0.0000000   -0.0000000   -0.0000000   -0.0000000    0.0013296
 95   H3 p0        -0.0001925    0.0054887    0.0077952   -0.0045761   -0.0000000
 96   H3 p+1        0.0001446   -0.0054382   -0.0038122    0.0070323    0.0000000
 97   H3 p-1       -0.0000000    0.0000000    0.0000000    0.0000000    0.0036180
 98   H3 p0        -0.0000321    0.0043750    0.0188507    0.0010167   -0.0000000
 99   H3 p+1        0.0000062   -0.0051292   -0.0084560    0.0241719    0.0000000
 100  H3 p-1        0.0000000    0.0000000   -0.0000000   -0.0000000    0.0191815
 101  H3 d0        -0.0000101   -0.0001338   -0.0002904   -0.0000213   -0.0000000
 102  H3 d+1        0.0000152    0.0005267    0.0005945   -0.0004390    0.0000000
 103  H3 d-1       -0.0000000   -0.0000000    0.0000000   -0.0000000   -0.0001807
 104  H3 d+2       -0.0000078   -0.0002663   -0.0001127    0.0000854    0.0000000
 105  H3 d-2       -0.0000000   -0.0000000    0.0000000   -0.0000000    0.0000563
 106  H3 d0         0.0000939   -0.0005315   -0.0027633   -0.0012626    0.0000000
 107  H3 d+1       -0.0001971    0.0016107    0.0030701   -0.0022675   -0.0000000
 108  H3 d-1        0.0000000    0.0000000   -0.0000000    0.0000000   -0.0028648
 109  H3 d+2        0.0000829   -0.0008804   -0.0008751    0.0040142   -0.0000000
 110  H3 d-2        0.0000000    0.0000000   -0.0000000   -0.0000000    0.0035215
 111  H3 f0         0.0000172   -0.0000504    0.0001681    0.0002756   -0.0000000
 112  H3 f+1        0.0000651   -0.0001841   -0.0007400    0.0000226    0.0000000
 113  H3 f-1        0.0000000   -0.0000000   -0.0000000    0.0000000    0.0002679
 114  H3 f+2       -0.0000653    0.0001788    0.0004606   -0.0004451    0.0000000
 115  H3 f-2        0.0000000   -0.0000000    0.0000000    0.0000000   -0.0005078
 116  H3 f+3        0.0000272   -0.0001097   -0.0001248    0.0004143    0.0000000
 117  H3 f-3       -0.0000000    0.0000000    0.0000000   -0.0000000    0.0003650

            Ene   -20.6298843   -1.2281729   -0.5254632   -0.5154270   -0.5025444
            Sym             A            A            A            A            A
            Occ             1            1            1            1            1


                            6            7            8            9           10

 1    O1 s0         0.0269460   -0.0000000    0.0000000    0.0195517    0.0202362
 2    O1 s0         0.0063270   -0.0000000    0.0000000   -0.0000414    0.0037071
 3    O1 s0         0.0275544    0.0000000    0.0000000    0.0356225    0.0251948
 4    O1 s0         0.0378107   -0.0000000    0.0000000   -0.0207340    0.0164229
 5    O1 s0        -0.1438624    0.0000000   -0.0000000    0.0497539   -0.0785040
 6    O1 s0         0.0473790   -0.0000000   -0.0000000   -0.2944061    0.0721496
 7    O1 s0        -0.5784593    0.0000000   -0.0000000    0.0423392   -1.2203783
 8    O1 p0        -0.1673020    0.0000000   -0.0000000   -0.1427066    0.1642109
 9    O1 p+1        0.0000000    0.1812817    0.0979269   -0.0000000   -0.0000000
 10   O1 p-1        0.0000000    0.0000000   -0.0000000    0.0000000    0.0000000
 11   O1 p0        -0.1732291   -0.0000000   -0.0000000   -0.1051088    0.0231629
 12   O1 p+1        0.0000000    0.2134542    0.0721621   -0.0000000    0.0000000
 13   O1 p-1        0.0000000   -0.0000000   -0.0000000    0.0000000   -0.0000000
 14   O1 p0        -0.1382161    0.0000000   -0.0000000   -0.3855169    0.4781447
 15   O1 p+1       -0.0000000    0.0435771    0.3103234   -0.0000000   -0.0000000
 16   O1 p-1       -0.0000000    0.0000000   -0.0000000    0.0000000    0.0000000
 17   O1 p0        -0.2912158    0.0000000   -0.0000000   -0.2482508   -1.9160035
 18   O1 p+1       -0.0000000    0.5701505    0.1259745   -0.0000000   -0.0000000
 19   O1 p-1        0.0000000   -0.0000000    0.0000000   -0.0000000   -0.0000000
 20   O1 d0        -0.0003470    0.0000000   -0.0000000   -0.0010406   -0.0033268
 21   O1 d+1       -0.0000000   -0.0001084   -0.0006509    0.0000000   -0.0000000
 22   O1 d-1       -0.0000000    0.0000000    0.0000000   -0.0000000   -0.0000000
 23   O1 d+2        0.0005783    0.0000000    0.0000000    0.0010730   -0.0028449
 24   O1 d-2       -0.0000000   -0.0000000   -0.0000000   -0.0000000   -0.0000000
 25   O1 d0        -0.0022144   -0.0000000    0.0000000    0.0094703    0.0219181
 26   O1 d+1        0.0000000   -0.0022791   -0.0229894    0.0000000    0.0000000
 27   O1 d-1        0.0000000   -0.0000000   -0.0000000    0.0000000    0.0000000
 28   O1 d+2        0.0005131   -0.0000000    0.0000000    0.0111394    0.0219025
 29   O1 d-2        0.0000000    0.0000000   -0.0000000   -0.0000000   -0.0000000
 30   O1 d0         0.0012929    0.0000000   -0.0000000   -0.0439988   -0.0897242
 31   O1 d+1       -0.0000000   -0.0396354    0.1020883    0.0000000   -0.0000000
 32   O1 d-1       -0.0000000   -0.0000000    0.0000000   -0.0000000   -0.0000000
 33   O1 d+2        0.0117596    0.0000000   -0.0000000   -0.0352274   -0.1067431
 34   O1 d-2       -0.0000000   -0.0000000   -0.0000000    0.0000000    0.0000000
 35   O1 f0        -0.0003516    0.0000000   -0.0000000   -0.0004759    0.0001927
 36   O1 f+1        0.0000000    0.0011270   -0.0035573    0.0000000    0.0000000
 37   O1 f-1       -0.0000000   -0.0000000   -0.0000000    0.0000000   -0.0000000
 38   O1 f+2       -0.0001361   -0.0000000    0.0000000    0.0025947    0.0025396
 39   O1 f-2        0.0000000    0.0000000   -0.0000000   -0.0000000    0.0000000
 40   O1 f+3        0.0000000    0.0009667   -0.0016628    0.0000000    0.0000000
 41   O1 f-3       -0.0000000    0.0000000   -0.0000000    0.0000000   -0.0000000
 42   O1 f0        -0.0010425   -0.0000000   -0.0000000    0.0010825    0.0019847
 43   O1 f+1       -0.0000000   -0.0084640    0.0185800    0.0000000   -0.0000000
 44   O1 f-1       -0.0000000    0.0000000    0.0000000    0.0000000    0.0000000
 45   O1 f+2       -0.0004466    0.0000000   -0.0000000   -0.0156820   -0.0138873
 46   O1 f-2       -0.0000000    0.0000000    0.0000000    0.0000000   -0.0000000
 47   O1 f+3       -0.0000000   -0.0022947    0.0110296   -0.0000000   -0.0000000
 48   O1 f-3        0.0000000   -0.0000000   -0.0000000   -0.0000000    0.0000000
 49   O1 g0         0.0000159   -0.0000000   -0.0000000    0.0009081   -0.0003901
 50   O1 g+1       -0.0000000   -0.0003339    0.0003748    0.0000000   -0.0000000
 51   O1 g-1       -0.0000000   -0.0000000    0.0000000   -0.0000000    0.0000000
 52   O1 g+2       -0.0000702    0.0000000    0.0000000   -0.0016274    0.0005540
 53   O1 g-2       -0.0000000   -0.0000000    0.0000000    0.0000000   -0.0000000
 54   O1 g+3       -0.0000000   -0.0008661    0.0018122    0.0000000   -0.0000000
 55   O1 g-3       -0.0000000   -0.0000000    0.0000000    0.0000000    0.0000000
 56   O1 g+4        0.0000265    0.0000000    0.0000000   -0.0001522    0.0004364
 57   O1 g-4        0.0000000    0.0000000    0.0000000   -0.0000000    0.0000000
 58   H2 s0         0.0305027   -0.0392965   -0.0863120    0.0887085    0.0078612
 59   H2 s0         0.1165093   -0.1354998    0.0503140   -0.0739860   -0.0921734
 60   H2 s0        -0.0394460    0.0572486   -1.4511144    1.5568637    0.9830024
 61   H2 s0         0.6911226   -1.2214102    1.6273184   -1.1278927    0.0369407
 62   H2 p0         0.0014572    0.0004968   -0.0099820    0.0069642   -0.0139525
 63   H2 p+1        0.0018531    0.0014557   -0.0087925    0.0091491   -0.0036835
 64   H2 p-1       -0.0000000   -0.0000000   -0.0000000   -0.0000000   -0.0000000
 65   H2 p0         0.0050440   -0.0177730    0.0297829   -0.0169866    0.0543067
 66   H2 p+1        0.0064923   -0.0188464    0.0332483   -0.0196118    0.0256653
 67   H2 p-1       -0.0000000    0.0000000    0.0000000    0.0000000    0.0000000
 68   H2 p0         0.0191169   -0.0383271    0.0064361   -0.0014089   -0.3418045
 69   H2 p+1        0.0272839   -0.0231293    0.0083778   -0.0184809   -0.2811263
 70   H2 p-1        0.0000000   -0.0000000   -0.0000000    0.0000000   -0.0000000
 71   H2 d0         0.0000035   -0.0001255    0.0011856   -0.0006123    0.0010174
 72   H2 d+1       -0.0001271   -0.0010716    0.0039049   -0.0030558   -0.0036559
 73   H2 d-1       -0.0000000   -0.0000000   -0.0000000    0.0000000    0.0000000
 74   H2 d+2       -0.0005404   -0.0005008    0.0015239   -0.0020473   -0.0013137
 75   H2 d-2       -0.0000000   -0.0000000   -0.0000000   -0.0000000    0.0000000
 76   H2 d0         0.0006341    0.0059544   -0.0118273    0.0056126   -0.0041005
 77   H2 d+1       -0.0042673    0.0139019   -0.0400006    0.0263974    0.0266165
 78   H2 d-1       -0.0000000    0.0000000    0.0000000   -0.0000000   -0.0000000
 79   H2 d+2       -0.0006936    0.0057870   -0.0168082    0.0189616    0.0143397
 80   H2 d-2       -0.0000000   -0.0000000    0.0000000    0.0000000    0.0000000
 81   H2 f0        -0.0006859   -0.0000648   -0.0015105    0.0013182   -0.0004051
 82   H2 f+1        0.0012689   -0.0017186    0.0037896   -0.0036147   -0.0027696
 83   H2 f-1        0.0000000   -0.0000000   -0.0000000   -0.0000000   -0.0000000
 84   H2 f+2        0.0016746   -0.0010824    0.0040737   -0.0047456   -0.0024835
 85   H2 f-2        0.0000000   -0.0000000   -0.0000000   -0.0000000   -0.0000000
 86   H2 f+3        0.0004972   -0.0004080    0.0020211   -0.0018485   -0.0000022
 87   H2 f-3       -0.0000000   -0.0000000   -0.0000000    0.0000000   -0.0000000
 88   H3 s0         0.0305027    0.0392965    0.0863120    0.0887085    0.0078612
 89   H3 s0         0.1165093    0.1354998   -0.0503140   -0.0739860   -0.0921734
 90   H3 s0        -0.0394460   -0.0572486    1.4511144    1.5568637    0.9830024
 91   H3 s0         0.6911226    1.2214102   -1.6273184   -1.1278927    0.0369407
 92   H3 p0         0.0014572   -0.0004968    0.0099820    0.0069642   -0.0139525
 93   H3 p+1       -0.0018531    0.0014557   -0.0087925   -0.0091491    0.0036835
 94   H3 p-1       -0.0000000   -0.0000000   -0.0000000    0.0000000   -0.0000000
 95   H3 p0         0.0050440    0.0177730   -0.0297829   -0.0169866    0.0543067
 96   H3 p+1       -0.0064923   -0.0188464    0.0332483    0.0196118   -0.0256653
 97   H3 p-1        0.0000000    0.0000000   -0.0000000   -0.0000000    0.0000000
 98   H3 p0         0.0191169    0.0383271   -0.0064361   -0.0014089   -0.3418045
 99   H3 p+1       -0.0272839   -0.0231293    0.0083778    0.0184809    0.2811263
 100  H3 p-1       -0.0000000    0.0000000   -0.0000000    0.0000000   -0.0000000
 101  H3 d0         0.0000035    0.0001255   -0.0011856   -0.0006123    0.0010174
 102  H3 d+1        0.0001271   -0.0010716    0.0039049    0.0030558    0.0036559
 103  H3 d-1       -0.0000000   -0.0000000    0.0000000   -0.0000000   -0.0000000
 104  H3 d+2       -0.0005404    0.0005008   -0.0015239   -0.0020473   -0.0013137
 105  H3 d-2        0.0000000    0.0000000    0.0000000    0.0000000   -0.0000000
 106  H3 d0         0.0006341   -0.0059544    0.0118273    0.0056126   -0.0041005
 107  H3 d+1        0.0042673    0.0139019   -0.0400006   -0.0263974   -0.0266165
 108  H3 d-1        0.0000000    0.0000000   -0.0000000    0.0000000    0.0000000
 109  H3 d+2       -0.0006936   -0.0057870    0.0168082    0.0189616    0.0143397
 110  H3 d-2       -0.0000000   -0.0000000   -0.0000000    0.0000000   -0.0000000
 111  H3 f0        -0.0006859    0.0000648    0.0015105    0.0013182   -0.0004051
 112  H3 f+1       -0.0012689   -0.0017186    0.0037896    0.0036147    0.0027696
 113  H3 f-1       -0.0000000   -0.0000000   -0.0000000    0.0000000   -0.0000000
 114  H3 f+2        0.0016746    0.0010824   -0.0040737   -0.0047456   -0.0024835
 115  H3 f-2       -0.0000000    0.0000000   -0.0000000   -0.0000000    0.0000000
 116  H3 f+3       -0.0004972   -0.0004080    0.0020211    0.0018485    0.0000022
 117  H3 f-3        0.0000000   -0.0000000   -0.0000000    0.0000000   -0.0000000

            Ene     0.0469215    0.0878951    0.2747259    0.3043016    0.3774563
            Sym             A            A            A            A            A
            Occ             0            0            0            0            0


                           11           12           13           14           15

 1    O1 s0        -0.0000000   -0.0000000    0.0048146    0.0000000   -0.0000000
 2    O1 s0        -0.0000000    0.0000000    0.0006879   -0.0000000    0.0000000
 3    O1 s0        -0.0000000   -0.0000000    0.0065440    0.0000000   -0.0000000
 4    O1 s0        -0.0000000    0.0000000    0.0022943   -0.0000000    0.0000000
 5    O1 s0         0.0000000   -0.0000000   -0.0186525    0.0000000   -0.0000000
 6    O1 s0        -0.0000000    0.0000000    0.1093319   -0.0000000    0.0000000
 7    O1 s0         0.0000000   -0.0000000   -0.7220478    0.0000000   -0.0000000
 8    O1 p0        -0.0000000   -0.0000000   -0.0238618    0.0000000    0.0000000
 9    O1 p+1       -0.0000000    0.2075810   -0.0000000   -0.0000000   -0.0000000
 10   O1 p-1        0.2018907   -0.0000000   -0.0000000    0.0000000   -0.0005079
 11   O1 p0        -0.0000000    0.0000000    0.0112968   -0.0000000    0.0000000
 12   O1 p+1       -0.0000000    0.0035390    0.0000000   -0.0000000   -0.0000000
 13   O1 p-1       -0.0126004   -0.0000000    0.0000000   -0.0000000    0.0429770
 14   O1 p0        -0.0000000   -0.0000000   -0.2188391    0.0000000   -0.0000000
 15   O1 p+1       -0.0000000    0.8829827   -0.0000000    0.0000000    0.0000000
 16   O1 p-1        0.8685327   -0.0000000   -0.0000000    0.0000000   -0.1567166
 17   O1 p0         0.0000000   -0.0000000   -0.7776400   -0.0000000   -0.0000000
 18   O1 p+1       -0.0000000   -2.2713522    0.0000000    0.0000000    0.0000000
 19   O1 p-1       -1.3450564    0.0000000    0.0000000    0.0000000    0.9340796
 20   O1 d0         0.0000000   -0.0000000   -0.0010170   -0.0000000   -0.0000000
 21   O1 d+1       -0.0000000   -0.0032681   -0.0000000    0.0000000    0.0000000
 22   O1 d-1       -0.0003755   -0.0000000    0.0000000    0.0000000   -0.0042776
 23   O1 d+2        0.0000000   -0.0000000   -0.0024707    0.0000000    0.0000000
 24   O1 d-2        0.0000000   -0.0000000   -0.0000000    0.0046747   -0.0000000
 25   O1 d0        -0.0000000    0.0000000    0.0362178   -0.0000000    0.0000000
 26   O1 d+1        0.0000000    0.0268497    0.0000000   -0.0000000   -0.0000000
 27   O1 d-1        0.0024280    0.0000000    0.0000000   -0.0000000   -0.0147464
 28   O1 d+2       -0.0000000    0.0000000   -0.0004419   -0.0000000    0.0000000
 29   O1 d-2       -0.0000000    0.0000000    0.0000000    0.0103248    0.0000000
 30   O1 d0         0.0000000   -0.0000000   -0.0932163    0.0000000   -0.0000000
 31   O1 d+1       -0.0000000   -0.0875673   -0.0000000    0.0000000    0.0000000
 32   O1 d-1       -0.0039330    0.0000000   -0.0000000    0.0000000   -0.0212777
 33   O1 d+2        0.0000000   -0.0000000   -0.0585990    0.0000000   -0.0000000
 34   O1 d-2        0.0000000   -0.0000000   -0.0000000    0.0329205   -0.0000000
 35   O1 f0        -0.0000000   -0.0000000    0.0039070    0.0000000   -0.0000000
 36   O1 f+1        0.0000000   -0.0003683    0.0000000   -0.0000000   -0.0000000
 37   O1 f-1        0.0000354   -0.0000000    0.0000000   -0.0000000   -0.0029063
 38   O1 f+2       -0.0000000    0.0000000    0.0015375    0.0000000    0.0000000
 39   O1 f-2       -0.0000000    0.0000000    0.0000000    0.0044135   -0.0000000
 40   O1 f+3        0.0000000    0.0005539    0.0000000    0.0000000   -0.0000000
 41   O1 f-3        0.0000567    0.0000000   -0.0000000   -0.0000000   -0.0035873
 42   O1 f0        -0.0000000    0.0000000   -0.0149636   -0.0000000    0.0000000
 43   O1 f+1       -0.0000000    0.0026895   -0.0000000    0.0000000    0.0000000
 44   O1 f-1        0.0020991    0.0000000   -0.0000000    0.0000000    0.0112747
 45   O1 f+2        0.0000000   -0.0000000   -0.0131769    0.0000000   -0.0000000
 46   O1 f-2        0.0000000    0.0000000   -0.0000000   -0.0180097   -0.0000000
 47   O1 f+3       -0.0000000    0.0005829   -0.0000000    0.0000000    0.0000000
 48   O1 f-3        0.0028554   -0.0000000   -0.0000000    0.0000000    0.0165994
 49   O1 g0        -0.0000000    0.0000000    0.0008276    0.0000000    0.0000000
 50   O1 g+1       -0.0000000    0.0004634   -0.0000000    0.0000000   -0.0000000
 51   O1 g-1        0.0000353    0.0000000   -0.0000000   -0.0000000   -0.0001080
 52   O1 g+2       -0.0000000   -0.0000000   -0.0017632   -0.0000000    0.0000000
 53   O1 g-2       -0.0000000    0.0000000    0.0000000   -0.0000678   -0.0000000
 54   O1 g+3        0.0000000    0.0013618   -0.0000000   -0.0000000   -0.0000000
 55   O1 g-3        0.0003346   -0.0000000    0.0000000    0.0000000    0.0008124
 56   O1 g+4       -0.0000000   -0.0000000   -0.0000447    0.0000000   -0.0000000
 57   O1 g-4        0.0000000    0.0000000    0.0000000    0.0000778    0.0000000
 58   H2 s0        -0.0000000   -0.0118157   -0.0064558   -0.0000000   -0.0000000
 59   H2 s0         0.0000000   -0.0796613   -0.0463633   -0.0000000    0.0000000
 60   H2 s0        -0.0000000    0.2951267    0.5635048   -0.0000000   -0.0000000
 61   H2 s0         0.0000000    1.1131968   -0.0786562   -0.0000000   -0.0000000
 62   H2 p0         0.0000000   -0.0052158    0.0297034   -0.0000000    0.0000000
 63   H2 p+1        0.0000000   -0.0099751   -0.0293066   -0.0000000    0.0000000
 64   H2 p-1       -0.0078581    0.0000000   -0.0000000    0.0501166   -0.0502488
 65   H2 p0        -0.0000000    0.0284265   -0.1040475   -0.0000000   -0.0000000
 66   H2 p+1       -0.0000000    0.0374894    0.1041491    0.0000000   -0.0000000
 67   H2 p-1        0.0195941   -0.0000000    0.0000000   -0.1825226    0.1912606
 68   H2 p0         0.0000000   -0.1497859    0.3754691    0.0000000    0.0000000
 69   H2 p+1        0.0000000   -0.1755932   -0.7321964    0.0000000    0.0000000
 70   H2 p-1       -0.0983128    0.0000000   -0.0000000    0.8621483   -0.9253894
 71   H2 d0        -0.0000000   -0.0008539    0.0000018    0.0000000    0.0000000
 72   H2 d+1        0.0000000    0.0001186   -0.0021494   -0.0000000    0.0000000
 73   H2 d-1        0.0008886   -0.0000000    0.0000000    0.0009949    0.0018970
 74   H2 d+2        0.0000000    0.0000702   -0.0002964   -0.0000000   -0.0000000
 75   H2 d-2        0.0002290    0.0000000   -0.0000000   -0.0026979   -0.0042762
 76   H2 d0         0.0000000    0.0034704   -0.0028260   -0.0000000   -0.0000000
 77   H2 d+1       -0.0000000   -0.0002334    0.0204908   -0.0000000   -0.0000000
 78   H2 d-1       -0.0026682    0.0000000   -0.0000000   -0.0050708   -0.0119657
 79   H2 d+2       -0.0000000   -0.0014453    0.0164855   -0.0000000   -0.0000000
 80   H2 d-2        0.0009002    0.0000000   -0.0000000    0.0167578    0.0232922
 81   H2 f0         0.0000000    0.0016704    0.0042581   -0.0000000   -0.0000000
 82   H2 f+1        0.0000000    0.0018861    0.0010361   -0.0000000    0.0000000
 83   H2 f-1       -0.0016737    0.0000000   -0.0000000    0.0015343   -0.0005234
 84   H2 f+2        0.0000000   -0.0004468   -0.0037773    0.0000000    0.0000000
 85   H2 f-2       -0.0034562    0.0000000    0.0000000    0.0027404   -0.0017384
 86   H2 f+3       -0.0000000   -0.0014519   -0.0010391   -0.0000000    0.0000000
 87   H2 f-3       -0.0022376   -0.0000000   -0.0000000    0.0014207   -0.0023589
 88   H3 s0        -0.0000000    0.0118157   -0.0064558    0.0000000    0.0000000
 89   H3 s0         0.0000000    0.0796613   -0.0463633    0.0000000   -0.0000000
 90   H3 s0        -0.0000000   -0.2951267    0.5635048   -0.0000000    0.0000000
 91   H3 s0        -0.0000000   -1.1131968   -0.0786562    0.0000000    0.0000000
 92   H3 p0         0.0000000    0.0052158    0.0297034    0.0000000   -0.0000000
 93   H3 p+1       -0.0000000   -0.0099751    0.0293066   -0.0000000    0.0000000
 94   H3 p-1       -0.0078581   -0.0000000    0.0000000   -0.0501166   -0.0502488
 95   H3 p0        -0.0000000   -0.0284265   -0.1040475   -0.0000000    0.0000000
 96   H3 p+1        0.0000000    0.0374894   -0.1041491    0.0000000   -0.0000000
 97   H3 p-1        0.0195941   -0.0000000   -0.0000000    0.1825226    0.1912606
 98   H3 p0         0.0000000    0.1497859    0.3754691    0.0000000   -0.0000000
 99   H3 p+1       -0.0000000   -0.1755932    0.7321964   -0.0000000    0.0000000
 100  H3 p-1       -0.0983128   -0.0000000    0.0000000   -0.8621483   -0.9253894
 101  H3 d0        -0.0000000    0.0008539    0.0000018    0.0000000   -0.0000000
 102  H3 d+1       -0.0000000    0.0001186    0.0021494    0.0000000    0.0000000
 103  H3 d-1        0.0008886    0.0000000   -0.0000000   -0.0009949    0.0018970
 104  H3 d+2        0.0000000   -0.0000702   -0.0002964   -0.0000000    0.0000000
 105  H3 d-2       -0.0002290    0.0000000    0.0000000   -0.0026979    0.0042762
 106  H3 d0         0.0000000   -0.0034704   -0.0028260    0.0000000    0.0000000
 107  H3 d+1        0.0000000   -0.0002334   -0.0204908    0.0000000   -0.0000000
 108  H3 d-1       -0.0026682   -0.0000000    0.0000000    0.0050708   -0.0119657
 109  H3 d+2        0.0000000    0.0014453    0.0164855    0.0000000   -0.0000000
 110  H3 d-2       -0.0009002   -0.0000000    0.0000000    0.0167578   -0.0232922
 111  H3 f0         0.0000000   -0.0016704    0.0042581    0.0000000    0.0000000
 112  H3 f+1       -0.0000000    0.0018861   -0.0010361    0.0000000    0.0000000
 113  H3 f-1       -0.0016737   -0.0000000    0.0000000   -0.0015343   -0.0005234
 114  H3 f+2       -0.0000000    0.0004468   -0.0037773    0.0000000   -0.0000000
 115  H3 f-2        0.0034562   -0.0000000    0.0000000    0.0027404    0.0017384
 116  H3 f+3        0.0000000   -0.0014519    0.0010391   -0.0000000    0.0000000
 117  H3 f-3       -0.0022376    0.0000000   -0.0000000   -0.0014207   -0.0023589

            Ene     0.3802868    0.4642817    0.5167610    0.6146626    0.6323584
            Sym             A            A            A            A            A
            Occ             0            0            0            0            0


                           16           17           18           19           20

 1    O1 s0         0.0640216   -0.0000000    0.0000000    0.0234580    0.0068061
 2    O1 s0        -0.0029392   -0.0000000   -0.0000000   -0.0034924   -0.0071171
 3    O1 s0         0.1288607   -0.0000000    0.0000000    0.0556577    0.0368292
 4    O1 s0        -0.1016696    0.0000000   -0.0000000   -0.0631560   -0.0845133
 5    O1 s0         0.3037305   -0.0000000    0.0000000    0.2252313    0.2612870
 6    O1 s0        -2.0029597    0.0000000   -0.0000000   -1.9226059   -0.1141718
 7    O1 s0         2.0937334    0.0000000    0.0000000    6.2037254   -2.6199648
 8    O1 p0        -0.0840767    0.0000000    0.0000000    0.1208061    0.0420357
 9    O1 p+1        0.0000000    0.0437608    0.0980638   -0.0000000    0.0000000
 10   O1 p-1        0.0000000   -0.0000000   -0.0000000   -0.0000000   -0.0000000
 11   O1 p0        -0.1007568   -0.0000000   -0.0000000   -0.1491142    0.3052800
 12   O1 p+1       -0.0000000   -0.0331687   -0.0324440   -0.0000000    0.0000000
 13   O1 p-1       -0.0000000   -0.0000000   -0.0000000   -0.0000000    0.0000000
 14   O1 p0        -0.2484571    0.0000000    0.0000000    1.8975722   -1.6007828
 15   O1 p+1        0.0000000    0.6103400    1.1543089   -0.0000000   -0.0000000
 16   O1 p-1        0.0000000    0.0000000    0.0000000    0.0000000   -0.0000000
 17   O1 p0         0.8639336   -0.0000000    0.0000000    1.0371725   -0.5618570
 18   O1 p+1        0.0000000    1.0891296    0.3586584   -0.0000000   -0.0000000
 19   O1 p-1        0.0000000   -0.0000000   -0.0000000    0.0000000    0.0000000
 20   O1 d0        -0.0015085    0.0000000    0.0000000    0.0013843   -0.0085893
 21   O1 d+1        0.0000000    0.0025646   -0.0042181    0.0000000   -0.0000000
 22   O1 d-1       -0.0000000   -0.0000000    0.0000000    0.0000000   -0.0000000
 23   O1 d+2       -0.0012603    0.0000000   -0.0000000   -0.0076782   -0.0040901
 24   O1 d-2       -0.0000000   -0.0000000   -0.0000000   -0.0000000    0.0000000
 25   O1 d0        -0.0082043   -0.0000000   -0.0000000   -0.0328251    0.0368204
 26   O1 d+1       -0.0000000   -0.0389539   -0.0372428    0.0000000    0.0000000
 27   O1 d-1        0.0000000   -0.0000000   -0.0000000    0.0000000    0.0000000
 28   O1 d+2       -0.0037888   -0.0000000   -0.0000000   -0.0267944    0.0225230
 29   O1 d-2        0.0000000   -0.0000000    0.0000000    0.0000000    0.0000000
 30   O1 d0        -0.0010401    0.0000000    0.0000000    0.2136377   -0.3575529
 31   O1 d+1        0.0000000    0.2998136    0.2870165   -0.0000000   -0.0000000
 32   O1 d-1       -0.0000000    0.0000000    0.0000000   -0.0000000   -0.0000000
 33   O1 d+2       -0.0048169    0.0000000    0.0000000    0.1951720   -0.4041269
 34   O1 d-2       -0.0000000    0.0000000   -0.0000000   -0.0000000    0.0000000
 35   O1 f0         0.0002213    0.0000000    0.0000000    0.0026390   -0.0016408
 36   O1 f+1       -0.0000000   -0.0030536   -0.0065140    0.0000000    0.0000000
 37   O1 f-1       -0.0000000    0.0000000    0.0000000    0.0000000   -0.0000000
 38   O1 f+2       -0.0062669   -0.0000000   -0.0000000   -0.0165040    0.0149467
 39   O1 f-2        0.0000000   -0.0000000    0.0000000    0.0000000   -0.0000000
 40   O1 f+3       -0.0000000   -0.0049035   -0.0022501   -0.0000000    0.0000000
 41   O1 f-3       -0.0000000    0.0000000    0.0000000    0.0000000   -0.0000000
 42   O1 f0        -0.0036546   -0.0000000   -0.0000000   -0.0222573    0.0224458
 43   O1 f+1        0.0000000    0.0301363    0.0441821   -0.0000000   -0.0000000
 44   O1 f-1       -0.0000000   -0.0000000   -0.0000000    0.0000000   -0.0000000
 45   O1 f+2        0.0312252    0.0000000    0.0000000    0.1139248   -0.1237790
 46   O1 f-2       -0.0000000   -0.0000000   -0.0000000    0.0000000   -0.0000000
 47   O1 f+3        0.0000000    0.0283499    0.0205728   -0.0000000   -0.0000000
 48   O1 f-3       -0.0000000   -0.0000000   -0.0000000   -0.0000000    0.0000000
 49   O1 g0        -0.0027582   -0.0000000   -0.0000000   -0.0047296    0.0058998
 50   O1 g+1        0.0000000    0.0001349    0.0001740    0.0000000   -0.0000000
 51   O1 g-1       -0.0000000   -0.0000000    0.0000000   -0.0000000   -0.0000000
 52   O1 g+2        0.0051152    0.0000000    0.0000000    0.0087494   -0.0118756
 53   O1 g-2        0.0000000   -0.0000000    0.0000000   -0.0000000    0.0000000
 54   O1 g+3        0.0000000    0.0030834    0.0009986    0.0000000   -0.0000000
 55   O1 g-3       -0.0000000    0.0000000   -0.0000000   -0.0000000    0.0000000
 56   O1 g+4        0.0011748   -0.0000000    0.0000000    0.0012387   -0.0025563
 57   O1 g-4       -0.0000000   -0.0000000    0.0000000   -0.0000000    0.0000000
 58   H2 s0         0.0129081    0.0031083   -0.0233896   -0.0003984   -0.0507576
 59   H2 s0         0.1324247    0.0454735   -0.2957669    0.0275958   -1.4225201
 60   H2 s0        -0.7240891   -0.8299902   -0.3287811   -2.1874130    3.5038684
 61   H2 s0         0.0059790   -0.1892026   -1.0087229   -0.3893635   -0.8148307
 62   H2 p0        -0.0289699    0.0414308    0.0139484    0.0203939    0.0103298
 63   H2 p+1       -0.0252501   -0.0322721    0.0449663    0.0044652    0.0266649
 64   H2 p-1        0.0000000    0.0000000    0.0000000   -0.0000000   -0.0000000
 65   H2 p0         0.1252582   -0.1647775   -0.0701998   -0.1073959   -0.0119847
 66   H2 p+1        0.1048543    0.1189563   -0.1970106   -0.0412516   -0.0844557
 67   H2 p-1       -0.0000000    0.0000000   -0.0000000   -0.0000000    0.0000000
 68   H2 p0        -0.3734909    1.2478234    0.8504872    1.4927068   -0.7277415
 69   H2 p+1       -0.2441575   -0.2239679    1.4601979    1.4019569   -0.6682520
 70   H2 p-1        0.0000000   -0.0000000    0.0000000   -0.0000000    0.0000000
 71   H2 d0         0.0004939    0.0018277    0.0020538    0.0055336   -0.0045670
 72   H2 d+1        0.0020371    0.0060990    0.0107829    0.0187722   -0.0180535
 73   H2 d-1        0.0000000   -0.0000000    0.0000000    0.0000000    0.0000000
 74   H2 d+2        0.0053025    0.0044365    0.0045756    0.0154600   -0.0137310
 75   H2 d-2       -0.0000000   -0.0000000   -0.0000000   -0.0000000    0.0000000
 76   H2 d0        -0.0088038   -0.0171496   -0.0306388   -0.0423980    0.0335766
 77   H2 d+1       -0.0352963   -0.0711365   -0.1040625   -0.1786691    0.1729952
 78   H2 d-1       -0.0000000    0.0000000   -0.0000000   -0.0000000   -0.0000000
 79   H2 d+2       -0.0418972   -0.0484138   -0.0354574   -0.1392724    0.1295531
 80   H2 d-2        0.0000000    0.0000000    0.0000000    0.0000000   -0.0000000
 81   H2 f0         0.0020883    0.0001049   -0.0031714   -0.0058156    0.0080358
 82   H2 f+1       -0.0059958    0.0119145    0.0112983    0.0109591   -0.0178572
 83   H2 f-1        0.0000000    0.0000000   -0.0000000    0.0000000   -0.0000000
 84   H2 f+2       -0.0061313    0.0066234    0.0119037    0.0177221   -0.0240657
 85   H2 f-2        0.0000000   -0.0000000   -0.0000000    0.0000000    0.0000000
 86   H2 f+3       -0.0013127    0.0004815    0.0076510    0.0072837   -0.0092862
 87   H2 f-3        0.0000000    0.0000000   -0.0000000   -0.0000000    0.0000000
 88   H3 s0         0.0129081   -0.0031083    0.0233896   -0.0003984   -0.0507576
 89   H3 s0         0.1324247   -0.0454735    0.2957669    0.0275958   -1.4225201
 90   H3 s0        -0.7240891    0.8299902    0.3287811   -2.1874130    3.5038684
 91   H3 s0         0.0059790    0.1892026    1.0087229   -0.3893635   -0.8148307
 92   H3 p0        -0.0289699   -0.0414308   -0.0139484    0.0203939    0.0103298
 93   H3 p+1        0.0252501   -0.0322721    0.0449663   -0.0044652   -0.0266649
 94   H3 p-1       -0.0000000    0.0000000   -0.0000000   -0.0000000    0.0000000
 95   H3 p0         0.1252582    0.1647775    0.0701998   -0.1073959   -0.0119847
 96   H3 p+1       -0.1048543    0.1189563   -0.1970106    0.0412516    0.0844557
 97   H3 p-1        0.0000000   -0.0000000    0.0000000    0.0000000   -0.0000000
 98   H3 p0        -0.3734909   -1.2478234   -0.8504872    1.4927068   -0.7277415
 99   H3 p+1        0.2441575   -0.2239679    1.4601979   -1.4019569    0.6682520
 100  H3 p-1       -0.0000000    0.0000000   -0.0000000   -0.0000000    0.0000000
 101  H3 d0         0.0004939   -0.0018277   -0.0020538    0.0055336   -0.0045670
 102  H3 d+1       -0.0020371    0.0060990    0.0107829   -0.0187722    0.0180535
 103  H3 d-1       -0.0000000    0.0000000    0.0000000   -0.0000000    0.0000000
 104  H3 d+2        0.0053025   -0.0044365   -0.0045756    0.0154600   -0.0137310
 105  H3 d-2        0.0000000   -0.0000000    0.0000000    0.0000000    0.0000000
 106  H3 d0        -0.0088038    0.0171496    0.0306388   -0.0423980    0.0335766
 107  H3 d+1        0.0352963   -0.0711365   -0.1040625    0.1786691   -0.1729952
 108  H3 d-1        0.0000000   -0.0000000   -0.0000000    0.0000000    0.0000000
 109  H3 d+2       -0.0418972    0.0484138    0.0354574   -0.1392724    0.1295531
 110  H3 d-2       -0.0000000    0.0000000   -0.0000000   -0.0000000   -0.0000000
 111  H3 f0         0.0020883   -0.0001049    0.0031714   -0.0058156    0.0080358
 112  H3 f+1        0.0059958    0.0119145    0.0112983   -0.0109591    0.0178572
 113  H3 f-1       -0.0000000   -0.0000000   -0.0000000   -0.0000000   -0.0000000
 114  H3 f+2       -0.0061313   -0.0066234   -0.0119037    0.0177221   -0.0240657
 115  H3 f-2        0.0000000   -0.0000000    0.0000000    0.0000000   -0.0000000
 116  H3 f+3        0.0013127    0.0004815    0.0076510   -0.0072837    0.0092862
 117  H3 f-3       -0.0000000   -0.0000000   -0.0000000   -0.0000000    0.0000000

            Ene     0.7672816    0.7860678    0.9185360    0.9412362    1.1592820
            Sym             A            A            A            A            A
            Occ             0            0            0            0            0


                           21           22           23           24           25

 1    O1 s0        -0.0000000   -0.0000000    0.0000000    0.0061069    0.0220279
 2    O1 s0        -0.0000000    0.0000000    0.0000000    0.0001707    0.0009347
 3    O1 s0         0.0000000   -0.0000000    0.0000000    0.0112994    0.0396755
 4    O1 s0        -0.0000000    0.0000000   -0.0000000   -0.0061325   -0.0185042
 5    O1 s0         0.0000000   -0.0000000    0.0000000    0.0240303    0.0639552
 6    O1 s0         0.0000000    0.0000000   -0.0000000   -0.3921225   -1.0400336
 7    O1 s0        -0.0000000   -0.0000000    0.0000000    1.3154532    2.7519713
 8    O1 p0        -0.0000000   -0.0000000    0.0000000    0.0827645    0.1539298
 9    O1 p+1        0.0082183    0.0000000    0.0000000   -0.0000000   -0.0000000
 10   O1 p-1       -0.0000000    0.0000000    0.0279225   -0.0000000    0.0000000
 11   O1 p0         0.0000000   -0.0000000    0.0000000    0.2039517    0.5657259
 12   O1 p+1       -0.2952398    0.0000000   -0.0000000    0.0000000    0.0000000
 13   O1 p-1       -0.0000000    0.0000000    0.0542645   -0.0000000    0.0000000
 14   O1 p0        -0.0000000    0.0000000   -0.0000000   -0.0302687   -0.6373095
 15   O1 p+1        2.4222261   -0.0000000    0.0000000   -0.0000000   -0.0000000
 16   O1 p-1        0.0000000   -0.0000000   -0.0414977    0.0000000   -0.0000000
 17   O1 p0        -0.0000000   -0.0000000    0.0000000    0.2631002    1.4664884
 18   O1 p+1        0.5403078    0.0000000    0.0000000   -0.0000000    0.0000000
 19   O1 p-1       -0.0000000   -0.0000000   -0.3546448    0.0000000    0.0000000
 20   O1 d0        -0.0000000    0.0000000   -0.0000000   -0.0301005    0.0378080
 21   O1 d+1        0.0129112    0.0000000   -0.0000000    0.0000000    0.0000000
 22   O1 d-1        0.0000000   -0.0000000   -0.0499175    0.0000000    0.0000000
 23   O1 d+2        0.0000000   -0.0000000    0.0000000    0.0361848    0.0266014
 24   O1 d-2       -0.0000000    0.0509806   -0.0000000    0.0000000    0.0000000
 25   O1 d0         0.0000000   -0.0000000    0.0000000    0.0543600   -0.0704269
 26   O1 d+1       -0.0925294    0.0000000   -0.0000000   -0.0000000   -0.0000000
 27   O1 d-1       -0.0000000    0.0000000    0.1024581   -0.0000000    0.0000000
 28   O1 d+2       -0.0000000    0.0000000   -0.0000000   -0.0779169   -0.0631120
 29   O1 d-2        0.0000000   -0.1065451    0.0000000   -0.0000000    0.0000000
 30   O1 d0        -0.0000000    0.0000000   -0.0000000   -0.6599967    0.8752323
 31   O1 d+1        1.3037828    0.0000000    0.0000000    0.0000000    0.0000000
 32   O1 d-1        0.0000000   -0.0000000   -1.0729826    0.0000000    0.0000000
 33   O1 d+2        0.0000000   -0.0000000    0.0000000    0.8514709    0.6577554
 34   O1 d-2       -0.0000000    1.0786249   -0.0000000    0.0000000    0.0000000
 35   O1 f0        -0.0000000   -0.0000000   -0.0000000   -0.0006799    0.0016054
 36   O1 f+1       -0.0231527    0.0000000   -0.0000000    0.0000000   -0.0000000
 37   O1 f-1       -0.0000000   -0.0000000   -0.0000718    0.0000000    0.0000000
 38   O1 f+2        0.0000000   -0.0000000    0.0000000   -0.0015374   -0.0006622
 39   O1 f-2       -0.0000000    0.0011577   -0.0000000    0.0000000    0.0000000
 40   O1 f+3       -0.0113544    0.0000000   -0.0000000    0.0000000   -0.0000000
 41   O1 f-3       -0.0000000   -0.0000000   -0.0015429    0.0000000    0.0000000
 42   O1 f0         0.0000000    0.0000000    0.0000000   -0.0001300   -0.0002098
 43   O1 f+1        0.1861236    0.0000000    0.0000000   -0.0000000    0.0000000
 44   O1 f-1       -0.0000000   -0.0000000   -0.0072875    0.0000000    0.0000000
 45   O1 f+2       -0.0000000   -0.0000000    0.0000000    0.0191498    0.0130254
 46   O1 f-2       -0.0000000   -0.0037689    0.0000000   -0.0000000   -0.0000000
 47   O1 f+3        0.0879600   -0.0000000    0.0000000   -0.0000000    0.0000000
 48   O1 f-3       -0.0000000   -0.0000000    0.0136733   -0.0000000   -0.0000000
 49   O1 g0         0.0000000   -0.0000000    0.0000000   -0.0007302    0.0004820
 50   O1 g+1        0.0043158   -0.0000000    0.0000000    0.0000000    0.0000000
 51   O1 g-1        0.0000000   -0.0000000   -0.0011010    0.0000000   -0.0000000
 52   O1 g+2       -0.0000000    0.0000000   -0.0000000    0.0011968    0.0012012
 53   O1 g-2       -0.0000000   -0.0001988    0.0000000   -0.0000000   -0.0000000
 54   O1 g+3        0.0144403    0.0000000    0.0000000    0.0000000    0.0000000
 55   O1 g-3       -0.0000000   -0.0000000    0.0000571   -0.0000000    0.0000000
 56   O1 g+4       -0.0000000    0.0000000   -0.0000000    0.0009492    0.0012310
 57   O1 g-4        0.0000000    0.0012086    0.0000000   -0.0000000   -0.0000000
 58   H2 s0         0.0356033   -0.0000000    0.0000000   -0.0006804   -0.0102825
 59   H2 s0         1.4792768    0.0000000    0.0000000    0.0926223    0.0326220
 60   H2 s0        -4.2226997   -0.0000000   -0.0000000   -0.6307717   -1.2789387
 61   H2 s0         0.8153820   -0.0000000    0.0000000   -0.0277166   -0.0181558
 62   H2 p0        -0.0284655    0.0000000    0.0000000    0.0213908    0.0037431
 63   H2 p+1       -0.0031096    0.0000000   -0.0000000   -0.0172395    0.0147315
 64   H2 p-1       -0.0000000   -0.0163407    0.0183198   -0.0000000    0.0000000
 65   H2 p0         0.0824043   -0.0000000   -0.0000000   -0.1418773   -0.0374239
 66   H2 p+1       -0.0446741   -0.0000000    0.0000000    0.0990756   -0.0995687
 67   H2 p-1        0.0000000    0.0976016   -0.1068368    0.0000000   -0.0000000
 68   H2 p0         1.1616840    0.0000000    0.0000000    0.6044103    0.3238679
 69   H2 p+1        1.5179931    0.0000000    0.0000000   -0.0300598    0.6008918
 70   H2 p-1       -0.0000000   -0.4176036    0.4875328   -0.0000000   -0.0000000
 71   H2 d0         0.0086826    0.0000000   -0.0000000   -0.0176893    0.0025639
 72   H2 d+1        0.0339592    0.0000000    0.0000000    0.0061227    0.0056284
 73   H2 d-1       -0.0000000    0.0164466    0.0005709    0.0000000    0.0000000
 74   H2 d+2        0.0124699   -0.0000000   -0.0000000    0.0031118   -0.0076401
 75   H2 d-2       -0.0000000    0.0008212   -0.0202713    0.0000000    0.0000000
 76   H2 d0        -0.1125077   -0.0000000    0.0000000    0.1186335   -0.0230212
 77   H2 d+1       -0.3566542   -0.0000000   -0.0000000   -0.0488432   -0.0536382
 78   H2 d-1        0.0000000   -0.1108237   -0.0010756   -0.0000000   -0.0000000
 79   H2 d+2       -0.1270234   -0.0000000    0.0000000   -0.0308996    0.0466357
 80   H2 d-2       -0.0000000   -0.0074301    0.1346821   -0.0000000    0.0000000
 81   H2 f0        -0.0104309   -0.0000000    0.0000000    0.0150648   -0.0043382
 82   H2 f+1        0.0339475    0.0000000    0.0000000    0.0168300    0.0033658
 83   H2 f-1       -0.0000000   -0.0062327    0.0084754   -0.0000000    0.0000000
 84   H2 f+2        0.0352536    0.0000000    0.0000000   -0.0030932    0.0046738
 85   H2 f-2       -0.0000000   -0.0149453    0.0146151   -0.0000000    0.0000000
 86   H2 f+3        0.0183564    0.0000000    0.0000000   -0.0062262    0.0012193
 87   H2 f-3       -0.0000000   -0.0082989    0.0078934   -0.0000000    0.0000000
 88   H3 s0        -0.0356033    0.0000000   -0.0000000   -0.0006804   -0.0102825
 89   H3 s0        -1.4792768    0.0000000   -0.0000000    0.0926223    0.0326220
 90   H3 s0         4.2226997    0.0000000    0.0000000   -0.6307717   -1.2789387
 91   H3 s0        -0.8153820    0.0000000   -0.0000000   -0.0277166   -0.0181558
 92   H3 p0         0.0284655   -0.0000000    0.0000000    0.0213908    0.0037431
 93   H3 p+1       -0.0031096    0.0000000    0.0000000    0.0172395   -0.0147315
 94   H3 p-1        0.0000000    0.0163407    0.0183198   -0.0000000   -0.0000000
 95   H3 p0        -0.0824043    0.0000000   -0.0000000   -0.1418773   -0.0374239
 96   H3 p+1       -0.0446741   -0.0000000   -0.0000000   -0.0990756    0.0995687
 97   H3 p-1        0.0000000   -0.0976016   -0.1068368    0.0000000    0.0000000
 98   H3 p0        -1.1616840   -0.0000000    0.0000000    0.6044103    0.3238679
 99   H3 p+1        1.5179931    0.0000000    0.0000000    0.0300598   -0.6008918
 100  H3 p-1       -0.0000000    0.4176036    0.4875328   -0.0000000   -0.0000000
 101  H3 d0        -0.0086826   -0.0000000   -0.0000000   -0.0176893    0.0025639
 102  H3 d+1        0.0339592    0.0000000    0.0000000   -0.0061227   -0.0056284
 103  H3 d-1        0.0000000   -0.0164466    0.0005709   -0.0000000   -0.0000000
 104  H3 d+2       -0.0124699   -0.0000000    0.0000000    0.0031118   -0.0076401
 105  H3 d-2        0.0000000    0.0008212    0.0202713   -0.0000000   -0.0000000
 106  H3 d0         0.1125077   -0.0000000    0.0000000    0.1186335   -0.0230212
 107  H3 d+1       -0.3566542   -0.0000000    0.0000000    0.0488432    0.0536382
 108  H3 d-1       -0.0000000    0.1108237   -0.0010756    0.0000000    0.0000000
 109  H3 d+2        0.1270234    0.0000000   -0.0000000   -0.0308996    0.0466357
 110  H3 d-2       -0.0000000   -0.0074301   -0.1346821    0.0000000    0.0000000
 111  H3 f0         0.0104309   -0.0000000    0.0000000    0.0150648   -0.0043382
 112  H3 f+1        0.0339475    0.0000000   -0.0000000   -0.0168300   -0.0033658
 113  H3 f-1       -0.0000000    0.0062327    0.0084754   -0.0000000   -0.0000000
 114  H3 f+2       -0.0352536    0.0000000   -0.0000000   -0.0030932    0.0046738
 115  H3 f-2        0.0000000   -0.0149453   -0.0146151    0.0000000    0.0000000
 116  H3 f+3        0.0183564   -0.0000000    0.0000000    0.0062262   -0.0012193
 117  H3 f-3       -0.0000000    0.0082989    0.0078934   -0.0000000   -0.0000000

            Ene     1.2016545    1.3775502    1.4021622    1.4241375    1.5122820
            Sym             A            A            A            A            A
            Occ             0            0            0            0            0


                           26           27           28           29           30

 1    O1 s0        -0.0000000   -0.0000000    0.0078586    0.0000000    0.0000000
 2    O1 s0         0.0000000   -0.0000000    0.0055900    0.0000000   -0.0000000
 3    O1 s0        -0.0000000   -0.0000000   -0.0037641   -0.0000000   -0.0000000
 4    O1 s0        -0.0000000   -0.0000000    0.0513300    0.0000000   -0.0000000
 5    O1 s0         0.0000000    0.0000000   -0.1331568   -0.0000000    0.0000000
 6    O1 s0         0.0000000    0.0000000   -0.9559177   -0.0000000   -0.0000000
 7    O1 s0        -0.0000000   -0.0000000    4.9900166    0.0000000    0.0000000
 8    O1 p0        -0.0000000   -0.0000000   -0.2242262   -0.0000000    0.0000000
 9    O1 p+1        0.0000000    0.2193308   -0.0000000    0.1879027    0.0000000
 10   O1 p-1        0.2891489   -0.0000000    0.0000000   -0.0000000    0.0104099
 11   O1 p0        -0.0000000   -0.0000000   -1.1696655   -0.0000000   -0.0000000
 12   O1 p+1        0.0000000    0.9166730   -0.0000000    0.9587980    0.0000000
 13   O1 p-1        1.1655487   -0.0000000    0.0000000   -0.0000000    0.0539365
 14   O1 p0        -0.0000000    0.0000000    3.6779218    0.0000000    0.0000000
 15   O1 p+1       -0.0000000   -1.7099196    0.0000000   -3.3708580   -0.0000000
 16   O1 p-1       -2.1481364    0.0000000   -0.0000000    0.0000000   -0.0999398
 17   O1 p0        -0.0000000   -0.0000000    0.2663670    0.0000000   -0.0000000
 18   O1 p+1        0.0000000    1.5243593    0.0000000   -0.2918565   -0.0000000
 19   O1 p-1        0.9339367   -0.0000000    0.0000000   -0.0000000    0.0975031
 20   O1 d0        -0.0000000   -0.0000000    0.0070152    0.0000000    0.0000000
 21   O1 d+1        0.0000000    0.0366075    0.0000000   -0.0384840   -0.0000000
 22   O1 d-1        0.0065254   -0.0000000    0.0000000   -0.0000000    0.0108569
 23   O1 d+2       -0.0000000   -0.0000000    0.0297150    0.0000000    0.0000000
 24   O1 d-2       -0.0000000   -0.0000000   -0.0000000    0.0000000    0.0000000
 25   O1 d0         0.0000000    0.0000000   -0.0162962   -0.0000000   -0.0000000
 26   O1 d+1        0.0000000   -0.0561388   -0.0000000    0.1056263    0.0000000
 27   O1 d-1       -0.0073694   -0.0000000   -0.0000000    0.0000000   -0.0115365
 28   O1 d+2        0.0000000   -0.0000000   -0.0787397   -0.0000000    0.0000000
 29   O1 d-2       -0.0000000    0.0000000    0.0000000   -0.0000000   -0.0000000
 30   O1 d0        -0.0000000   -0.0000000    0.4730419    0.0000000    0.0000000
 31   O1 d+1        0.0000000    0.7970269    0.0000000   -1.9362252   -0.0000000
 32   O1 d-1        0.0957610   -0.0000000    0.0000000    0.0000000    0.2913295
 33   O1 d+2       -0.0000000    0.0000000    1.1280224    0.0000000    0.0000000
 34   O1 d-2       -0.0000000   -0.0000000    0.0000000    0.0000000    0.0000000
 35   O1 f0        -0.0000000    0.0000000    0.0018860    0.0000000    0.0000000
 36   O1 f+1        0.0000000    0.0040739   -0.0000000    0.0170375    0.0000000
 37   O1 f-1        0.0019070    0.0000000    0.0000000   -0.0000000    0.0089073
 38   O1 f+2        0.0000000   -0.0000000   -0.0160569   -0.0000000    0.0000000
 39   O1 f-2        0.0000000    0.0000000    0.0000000   -0.0000000   -0.0000000
 40   O1 f+3        0.0000000    0.0041515   -0.0000000    0.0083834    0.0000000
 41   O1 f-3        0.0028344   -0.0000000    0.0000000    0.0000000   -0.0083551
 42   O1 f0        -0.0000000   -0.0000000   -0.0032443   -0.0000000   -0.0000000
 43   O1 f+1       -0.0000000   -0.0185066    0.0000000   -0.1213178   -0.0000000
 44   O1 f-1       -0.0052038    0.0000000    0.0000000    0.0000000   -0.0808100
 45   O1 f+2       -0.0000000    0.0000000    0.1006366    0.0000000   -0.0000000
 46   O1 f-2       -0.0000000   -0.0000000   -0.0000000    0.0000000   -0.0000000
 47   O1 f+3       -0.0000000   -0.0221485    0.0000000   -0.0570219   -0.0000000
 48   O1 f-3       -0.0114936    0.0000000   -0.0000000   -0.0000000    0.0784326
 49   O1 g0        -0.0000000   -0.0000000   -0.0080784   -0.0000000   -0.0000000
 50   O1 g+1       -0.0000000   -0.0006444    0.0000000   -0.0059518   -0.0000000
 51   O1 g-1        0.0000995   -0.0000000   -0.0000000    0.0000000   -0.0015397
 52   O1 g+2       -0.0000000    0.0000000    0.0147400    0.0000000    0.0000000
 53   O1 g-2        0.0000000   -0.0000000   -0.0000000    0.0000000   -0.0000000
 54   O1 g+3       -0.0000000   -0.0019035    0.0000000   -0.0137404   -0.0000000
 55   O1 g-3       -0.0000123   -0.0000000   -0.0000000   -0.0000000    0.0024920
 56   O1 g+4        0.0000000    0.0000000    0.0055306    0.0000000   -0.0000000
 57   O1 g-4        0.0000000   -0.0000000   -0.0000000    0.0000000   -0.0000000
 58   H2 s0        -0.0000000   -0.0205696   -0.0011189   -0.0044420    0.0000000
 59   H2 s0         0.0000000   -0.1616762   -0.3110388    0.4505644   -0.0000000
 60   H2 s0        -0.0000000   -0.1521535   -2.1698277    1.7955042    0.0000000
 61   H2 s0        -0.0000000   -0.6221491   -0.0218331    0.1884594   -0.0000000
 62   H2 p0         0.0000000    0.0070586   -0.0243558   -0.0072697    0.0000000
 63   H2 p+1        0.0000000    0.0176038    0.0111411    0.0156560   -0.0000000
 64   H2 p-1        0.0153390   -0.0000000    0.0000000   -0.0000000   -0.0198843
 65   H2 p0        -0.0000000   -0.0383878    0.0491952    0.2097073   -0.0000000
 66   H2 p+1       -0.0000000   -0.1175052   -0.1870495    0.0377937    0.0000000
 67   H2 p-1       -0.1114592    0.0000000   -0.0000000    0.0000000    0.1444884
 68   H2 p0        -0.0000000    0.2121511    1.2252688   -1.4233945   -0.0000000
 69   H2 p+1        0.0000000    0.2496330    1.3489909   -1.2670118   -0.0000000
 70   H2 p-1        0.0678404    0.0000000   -0.0000000   -0.0000000   -0.1155336
 71   H2 d0        -0.0000000    0.0041925    0.0139634    0.0043836    0.0000000
 72   H2 d+1       -0.0000000   -0.0075219    0.0229951   -0.0243625   -0.0000000
 73   H2 d-1       -0.0068657    0.0000000    0.0000000   -0.0000000    0.0692538
 74   H2 d+2       -0.0000000    0.0007562   -0.0037922   -0.0140683    0.0000000
 75   H2 d-2       -0.0020116    0.0000000   -0.0000000    0.0000000   -0.0729837
 76   H2 d0         0.0000000   -0.0258828   -0.1349617    0.0290649   -0.0000000
 77   H2 d+1        0.0000000    0.0693038   -0.3045736    0.3624630    0.0000000
 78   H2 d-1        0.0458235   -0.0000000   -0.0000000    0.0000000   -0.5015498
 79   H2 d+2        0.0000000    0.0037081   -0.0430514    0.1935787   -0.0000000
 80   H2 d-2        0.0134560   -0.0000000    0.0000000   -0.0000000    0.5109708
 81   H2 f0        -0.0000000   -0.0043246   -0.0162997    0.0042640   -0.0000000
 82   H2 f+1       -0.0000000   -0.0076739    0.0307351   -0.0461003   -0.0000000
 83   H2 f-1        0.0058988   -0.0000000    0.0000000    0.0000000   -0.0015447
 84   H2 f+2       -0.0000000    0.0016582    0.0367656   -0.0399760   -0.0000000
 85   H2 f-2        0.0127457   -0.0000000   -0.0000000    0.0000000    0.0010693
 86   H2 f+3       -0.0000000    0.0034169    0.0135013   -0.0139710    0.0000000
 87   H2 f-3        0.0077412   -0.0000000   -0.0000000    0.0000000   -0.0075112
 88   H3 s0         0.0000000    0.0205696   -0.0011189    0.0044420    0.0000000
 89   H3 s0        -0.0000000    0.1616762   -0.3110388   -0.4505644   -0.0000000
 90   H3 s0         0.0000000    0.1521535   -2.1698277   -1.7955042    0.0000000
 91   H3 s0         0.0000000    0.6221491   -0.0218331   -0.1884594   -0.0000000
 92   H3 p0        -0.0000000   -0.0070586   -0.0243558    0.0072697   -0.0000000
 93   H3 p+1        0.0000000    0.0176038   -0.0111411    0.0156560    0.0000000
 94   H3 p-1        0.0153390   -0.0000000   -0.0000000    0.0000000   -0.0198843
 95   H3 p0         0.0000000    0.0383878    0.0491952   -0.2097073    0.0000000
 96   H3 p+1       -0.0000000   -0.1175052    0.1870495    0.0377937   -0.0000000
 97   H3 p-1       -0.1114592    0.0000000    0.0000000   -0.0000000    0.1444884
 98   H3 p0        -0.0000000   -0.2121511    1.2252688    1.4233945    0.0000000
 99   H3 p+1        0.0000000    0.2496330   -1.3489909   -1.2670118   -0.0000000
 100  H3 p-1        0.0678404   -0.0000000   -0.0000000    0.0000000   -0.1155336
 101  H3 d0        -0.0000000   -0.0041925    0.0139634   -0.0043836    0.0000000
 102  H3 d+1       -0.0000000   -0.0075219   -0.0229951   -0.0243625    0.0000000
 103  H3 d-1       -0.0068657    0.0000000   -0.0000000    0.0000000    0.0692538
 104  H3 d+2       -0.0000000   -0.0007562   -0.0037922    0.0140683    0.0000000
 105  H3 d-2        0.0020116   -0.0000000   -0.0000000   -0.0000000    0.0729837
 106  H3 d0        -0.0000000    0.0258828   -0.1349617   -0.0290649   -0.0000000
 107  H3 d+1        0.0000000    0.0693038    0.3045736    0.3624630   -0.0000000
 108  H3 d-1        0.0458235   -0.0000000    0.0000000   -0.0000000   -0.5015498
 109  H3 d+2       -0.0000000   -0.0037081   -0.0430514   -0.1935787   -0.0000000
 110  H3 d-2       -0.0134560   -0.0000000    0.0000000    0.0000000   -0.5109708
 111  H3 f0         0.0000000    0.0043246   -0.0162997   -0.0042640   -0.0000000
 112  H3 f+1       -0.0000000   -0.0076739   -0.0307351   -0.0461003    0.0000000
 113  H3 f-1        0.0058988   -0.0000000   -0.0000000    0.0000000   -0.0015447
 114  H3 f+2        0.0000000   -0.0016582    0.0367656    0.0399760   -0.0000000
 115  H3 f-2       -0.0127457    0.0000000    0.0000000    0.0000000   -0.0010693
 116  H3 f+3       -0.0000000    0.0034169   -0.0135013   -0.0139710   -0.0000000
 117  H3 f-3        0.0077412   -0.0000000   -0.0000000    0.0000000   -0.0075112

            Ene     1.6070633    1.6143731    1.8877468    1.9059317    1.9744856
            Sym             A            A            A            A            A
            Occ             0            0            0            0            0


                           31           32           33           34           35

 1    O1 s0         0.0045416    0.0000000    0.0000000   -0.0000000   -0.0000000
 2    O1 s0         0.0005502    0.0000000   -0.0000000   -0.0000000   -0.0000000
 3    O1 s0         0.0071537    0.0000000    0.0000000   -0.0000000    0.0000000
 4    O1 s0        -0.0003444    0.0000000   -0.0000000    0.0000000   -0.0000000
 5    O1 s0        -0.0018990   -0.0000000    0.0000000    0.0000000    0.0000000
 6    O1 s0        -0.0957317   -0.0000000   -0.0000000   -0.0000000   -0.0000000
 7    O1 s0         0.2356986    0.0000000    0.0000000    0.0000000   -0.0000000
 8    O1 p0         0.0051391   -0.0000000   -0.0000000    0.0000000    0.0000000
 9    O1 p+1        0.0000000    0.0287779   -0.0000000   -0.0000000    0.0537865
 10   O1 p-1        0.0000000   -0.0000000   -0.0000000   -0.0000000   -0.0000000
 11   O1 p0         0.1213104   -0.0000000   -0.0000000   -0.0000000   -0.0000000
 12   O1 p+1        0.0000000    0.2579982   -0.0000000   -0.0000000    0.0892376
 13   O1 p-1        0.0000000   -0.0000000    0.0000000   -0.0000000   -0.0000000
 14   O1 p0        -0.3250149    0.0000000    0.0000000    0.0000000   -0.0000000
 15   O1 p+1       -0.0000000   -0.8190924    0.0000000    0.0000000   -0.6119346
 16   O1 p-1       -0.0000000   -0.0000000   -0.0000000    0.0000000    0.0000000
 17   O1 p0         0.2489942    0.0000000    0.0000000    0.0000000    0.0000000
 18   O1 p+1       -0.0000000   -0.0413379    0.0000000   -0.0000000    0.1955652
 19   O1 p-1        0.0000000   -0.0000000    0.0000000   -0.0000000    0.0000000
 20   O1 d0        -0.0154548    0.0000000   -0.0000000    0.0000000   -0.0000000
 21   O1 d+1       -0.0000000   -0.0017910    0.0000000   -0.0000000    0.0155033
 22   O1 d-1        0.0000000   -0.0000000   -0.0000000    0.0000000    0.0000000
 23   O1 d+2       -0.0050733    0.0000000    0.0000000    0.0000000    0.0000000
 24   O1 d-2       -0.0000000    0.0000000    0.0006984    0.0210139    0.0000000
 25   O1 d0         0.0661740   -0.0000000    0.0000000   -0.0000000    0.0000000
 26   O1 d+1        0.0000000    0.0111588    0.0000000    0.0000000   -0.0889975
 27   O1 d-1       -0.0000000    0.0000000    0.0000000   -0.0000000   -0.0000000
 28   O1 d+2       -0.0153751   -0.0000000   -0.0000000   -0.0000000   -0.0000000
 29   O1 d-2        0.0000000    0.0000000    0.0303723   -0.0719659   -0.0000000
 30   O1 d0        -0.3888558    0.0000000   -0.0000000    0.0000000   -0.0000000
 31   O1 d+1       -0.0000000   -0.1381336    0.0000000   -0.0000000    0.0314565
 32   O1 d-1        0.0000000   -0.0000000   -0.0000000   -0.0000000    0.0000000
 33   O1 d+2       -0.1441274    0.0000000    0.0000000    0.0000000    0.0000000
 34   O1 d-2       -0.0000000    0.0000000    0.1113090    0.4711255    0.0000000
 35   O1 f0        -0.0023564   -0.0000000   -0.0000000    0.0000000   -0.0000000
 36   O1 f+1        0.0000000    0.0007682    0.0000000   -0.0000000    0.0080746
 37   O1 f-1        0.0000000   -0.0000000    0.0000000    0.0000000   -0.0000000
 38   O1 f+2       -0.0044252    0.0000000   -0.0000000   -0.0000000    0.0000000
 39   O1 f-2        0.0000000   -0.0000000   -0.0057075    0.0128465    0.0000000
 40   O1 f+3        0.0000000   -0.0063094    0.0000000    0.0000000   -0.0035382
 41   O1 f-3       -0.0000000    0.0000000    0.0000000    0.0000000   -0.0000000
 42   O1 f0         0.0564891    0.0000000    0.0000000    0.0000000    0.0000000
 43   O1 f+1        0.0000000   -0.0280380    0.0000000    0.0000000   -0.1528042
 44   O1 f-1       -0.0000000    0.0000000    0.0000000   -0.0000000    0.0000000
 45   O1 f+2        0.0280327   -0.0000000    0.0000000    0.0000000   -0.0000000
 46   O1 f-2       -0.0000000    0.0000000    0.0689902   -0.1641208   -0.0000000
 47   O1 f+3        0.0000000    0.0764144   -0.0000000   -0.0000000    0.0311699
 48   O1 f-3        0.0000000   -0.0000000    0.0000000   -0.0000000    0.0000000
 49   O1 g0         0.0014949    0.0000000   -0.0000000   -0.0000000    0.0000000
 50   O1 g+1        0.0000000    0.0095407   -0.0000000    0.0000000   -0.0032090
 51   O1 g-1       -0.0000000    0.0000000   -0.0000000   -0.0000000   -0.0000000
 52   O1 g+2       -0.0039525   -0.0000000    0.0000000    0.0000000   -0.0000000
 53   O1 g-2       -0.0000000    0.0000000    0.0036289    0.0017385    0.0000000
 54   O1 g+3       -0.0000000   -0.0024072   -0.0000000   -0.0000000    0.0015632
 55   O1 g-3        0.0000000   -0.0000000   -0.0000000   -0.0000000    0.0000000
 56   O1 g+4        0.0025371   -0.0000000    0.0000000    0.0000000   -0.0000000
 57   O1 g-4       -0.0000000    0.0000000   -0.0010929   -0.0002659   -0.0000000
 58   H2 s0        -0.0055646   -0.0051996   -0.0000000   -0.0000000    0.0113912
 59   H2 s0         0.3180903   -0.0959465    0.0000000   -0.0000000    0.0542567
 60   H2 s0        -0.4557201    0.5333592   -0.0000000   -0.0000000    0.0961830
 61   H2 s0         0.1109729   -0.0202223   -0.0000000   -0.0000000    0.2579247
 62   H2 p0        -0.0066228   -0.0114069    0.0000000   -0.0000000    0.0461333
 63   H2 p+1        0.0209788    0.0126376    0.0000000    0.0000000   -0.1189208
 64   H2 p-1       -0.0000000   -0.0000000   -0.0668143    0.1065787    0.0000000
 65   H2 p0         0.0519174    0.0880471   -0.0000000    0.0000000   -0.2985260
 66   H2 p+1       -0.0628893   -0.0832323   -0.0000000   -0.0000000    0.9755598
 67   H2 p-1        0.0000000    0.0000000    0.4776164   -0.7953350   -0.0000000
 68   H2 p0         0.0084975   -0.2985485    0.0000000   -0.0000000    0.0196460
 69   H2 p+1        0.0395232   -0.1894468    0.0000000    0.0000000   -0.9068084
 70   H2 p-1       -0.0000000   -0.0000000   -0.2832191    0.3887591    0.0000000
 71   H2 d0        -0.0123340   -0.0731360    0.0000000    0.0000000   -0.0273719
 72   H2 d+1        0.0423161    0.0479021   -0.0000000    0.0000000   -0.0240061
 73   H2 d-1        0.0000000   -0.0000000   -0.0543850   -0.0639408   -0.0000000
 74   H2 d+2       -0.0897054   -0.0420140    0.0000000   -0.0000000    0.0067942
 75   H2 d-2       -0.0000000    0.0000000    0.0682826    0.0003063   -0.0000000
 76   H2 d0         0.0822895    0.5759386   -0.0000000   -0.0000000    0.2580352
[...]
 115  H3 f-2        0.1283996    0.1692598   -0.0000000    0.0258281   -0.0238007
 116  H3 f+3       -0.0000000    0.0000000    0.0552773   -0.0000000   -0.0000000
 117  H3 f-3       -0.0990157   -0.0882897    0.0000000   -0.0217398    0.0061110

            Ene    11.8944071   12.0564246   12.2936369   12.6240819   12.6452785
            Sym             A            A            A            A            A
            Occ             0            0            0            0            0


                          111          112          113          114          115

 1    O1 s0         0.0000000    0.0078537    0.1123949    0.0000000    0.3632696
 2    O1 s0        -0.0000000   -0.0036833   -0.0595891   -0.0000000   -0.2137433
 3    O1 s0         0.0000000    0.0373887    0.5624449    0.0000000    1.9678399
 4    O1 s0        -0.0000000   -0.0734159   -1.1587791   -0.0000000   -4.4074153
 5    O1 s0         0.0000000    0.0258448    0.7922092    0.0000000    5.0682507
 6    O1 s0        -0.0000000    0.0229669    0.0932681   -0.0000000   -3.8954682
 7    O1 s0         0.0000000   -0.0017368   -0.8447757    0.0000000   -0.6848947
 8    O1 p0        -0.0000000   -0.0073376   -0.1381904    0.0000000    0.1633542
 9    O1 p+1        0.0143352    0.0000000    0.0000000    0.2124949   -0.0000000
 10   O1 p-1       -0.0000000   -0.0000000    0.0000000   -0.0000000   -0.0000000
 11   O1 p0         0.0000000   -0.0188127    0.4406157   -0.0000000   -0.0274578
 12   O1 p+1        0.4392411    0.0000000   -0.0000000   -0.3836425   -0.0000000
 13   O1 p-1        0.0000000    0.0000000   -0.0000000    0.0000000    0.0000000
 14   O1 p0         0.0000000    0.1159110   -0.5788437    0.0000000   -1.7639466
 15   O1 p+1       -2.1509937   -0.0000000    0.0000000   -0.6201464    0.0000000
 16   O1 p-1       -0.0000000   -0.0000000    0.0000000    0.0000000    0.0000000
 17   O1 p0         0.0000000    0.0526243   -0.1852603    0.0000000    0.1267392
 18   O1 p+1       -0.0300725   -0.0000000    0.0000000    0.1782967   -0.0000000
 19   O1 p-1       -0.0000000   -0.0000000    0.0000000   -0.0000000    0.0000000
 20   O1 d0        -0.0000000    1.0579186   -0.8202326    0.0000000    0.1990124
 21   O1 d+1       -0.1240719   -0.0000000    0.0000000    1.3729801   -0.0000000
 22   O1 d-1       -0.0000000   -0.0000000    0.0000000   -0.0000000    0.0000000
 23   O1 d+2        0.0000000   -0.8291956   -0.9963815    0.0000000    0.3471626
 24   O1 d-2       -0.0000000    0.0000000    0.0000000   -0.0000000    0.0000000
 25   O1 d0         0.0000000   -0.9130741    0.7559869   -0.0000000   -0.1853048
 26   O1 d+1        0.3443370    0.0000000   -0.0000000   -1.3380626    0.0000000
 27   O1 d-1        0.0000000    0.0000000   -0.0000000    0.0000000   -0.0000000
 28   O1 d+2       -0.0000000    0.7093882    0.9007165   -0.0000000   -0.2973183
 29   O1 d-2        0.0000000   -0.0000000   -0.0000000    0.0000000   -0.0000000
 30   O1 d0        -0.0000000    0.5339344   -0.4524812    0.0000000   -0.2500519
 31   O1 d+1       -1.7481559   -0.0000000    0.0000000   -0.0442493    0.0000000
 32   O1 d-1       -0.0000000   -0.0000000    0.0000000   -0.0000000    0.0000000
 33   O1 d+2        0.0000000   -0.3520227   -0.4447514    0.0000000   -0.5744187
 34   O1 d-2       -0.0000000    0.0000000    0.0000000   -0.0000000    0.0000000
 35   O1 f0         0.0000000   -0.2318272    0.0504209   -0.0000000   -0.1244835
 36   O1 f+1        1.1839104    0.0000000   -0.0000000    0.0491933   -0.0000000
 37   O1 f-1        0.0000000    0.0000000   -0.0000000    0.0000000   -0.0000000
 38   O1 f+2       -0.0000000    0.1048281    0.2676405    0.0000000    0.3603702
 39   O1 f-2        0.0000000   -0.0000000    0.0000000    0.0000000   -0.0000000
 40   O1 f+3        0.3263264    0.0000000   -0.0000000   -0.0042596   -0.0000000
 41   O1 f-3        0.0000000    0.0000000    0.0000000    0.0000000    0.0000000
 42   O1 f0        -0.0000000    0.1842677   -0.0629211    0.0000000    0.2280487
 43   O1 f+1       -1.2135138   -0.0000000    0.0000000   -0.3146534    0.0000000
 44   O1 f-1       -0.0000000   -0.0000000    0.0000000   -0.0000000    0.0000000
 45   O1 f+2        0.0000000   -0.0652970   -0.1484159   -0.0000000   -0.7150683
 46   O1 f-2       -0.0000000    0.0000000   -0.0000000   -0.0000000    0.0000000
 47   O1 f+3       -0.3438715   -0.0000000    0.0000000   -0.0994532    0.0000000
 48   O1 f-3       -0.0000000   -0.0000000   -0.0000000   -0.0000000    0.0000000
 49   O1 g0        -0.0000000    0.0075835   -0.0322336    0.0000000    0.1812901
 50   O1 g+1       -0.2332988   -0.0000000    0.0000000   -0.0873843    0.0000000
 51   O1 g-1       -0.0000000   -0.0000000    0.0000000   -0.0000000    0.0000000
 52   O1 g+2        0.0000000    0.0258938    0.0139044   -0.0000000   -0.2944612
 53   O1 g-2        0.0000000    0.0000000   -0.0000000   -0.0000000    0.0000000
 54   O1 g+3       -0.2444132   -0.0000000    0.0000000   -0.1460634    0.0000000
 55   O1 g-3       -0.0000000   -0.0000000   -0.0000000    0.0000000    0.0000000
 56   O1 g+4        0.0000000   -0.0144174    0.0069399   -0.0000000   -0.0936968
 57   O1 g-4       -0.0000000    0.0000000   -0.0000000   -0.0000000    0.0000000
 58   H2 s0        -0.3256449    0.0254858    0.0161124   -0.2158570   -0.3498315
 59   H2 s0         0.9754756   -0.0445385    0.0894924    0.2960503    0.7153509
 60   H2 s0         0.8916508   -0.0032906    0.3764852    0.3534756    0.8417522
 61   H2 s0        -0.0777761    0.0077442   -0.0247024   -0.1115263   -0.1321802
 62   H2 p0         0.1536984   -0.0268324   -0.0913469    0.2402320    0.2766521
 63   H2 p+1        0.1979596   -0.0436162   -0.0547878    0.2438070    0.2643276
 64   H2 p-1        0.0000000   -0.0000000    0.0000000    0.0000000    0.0000000
 65   H2 p0        -0.6276231    0.0120348    0.0696097   -0.4254225   -0.6636923
 66   H2 p+1       -0.6944613    0.0805308   -0.0026398   -0.4136015   -0.6518457
 67   H2 p-1       -0.0000000    0.0000000   -0.0000000   -0.0000000   -0.0000000
 68   H2 p0        -0.4374429   -0.1031498   -0.1214563   -0.1208239   -0.4359677
 69   H2 p+1       -0.4564126    0.0712940   -0.1672279   -0.1980551   -0.3977574
 70   H2 p-1        0.0000000    0.0000000    0.0000000    0.0000000   -0.0000000
 71   H2 d0         0.0227174   -0.0189133    0.0154290    0.0045590    0.0153026
 72   H2 d+1        0.1297294    0.0169696    0.0231601   -0.0027158    0.0340115
 73   H2 d-1        0.0000000   -0.0000000    0.0000000   -0.0000000   -0.0000000
 74   H2 d+2        0.0818218    0.0025287    0.0035707   -0.0226471    0.0162707
 75   H2 d-2        0.0000000    0.0000000    0.0000000    0.0000000   -0.0000000
 76   H2 d0         0.0202722    0.1068996   -0.0552637    0.0770475    0.1774838
 77   H2 d+1        0.3521428   -0.0272436   -0.0757630    0.3514354    0.5076138
 78   H2 d-1       -0.0000000    0.0000000   -0.0000000   -0.0000000    0.0000000
 79   H2 d+2        0.1801584   -0.0588949    0.0083228    0.2205017    0.2403463
 80   H2 d-2       -0.0000000   -0.0000000    0.0000000   -0.0000000    0.0000000
 81   H2 f0         0.1137935    0.0141257   -0.0387385    0.0607888   -0.0017208
 82   H2 f+1        0.0129256    0.0194419    0.1097948   -0.1626312   -0.1538969
 83   H2 f-1       -0.0000000   -0.0000000    0.0000000    0.0000000   -0.0000000
 84   H2 f+2       -0.0711869    0.0130128    0.0939462   -0.1942450   -0.1252534
 85   H2 f-2       -0.0000000   -0.0000000    0.0000000    0.0000000   -0.0000000
 86   H2 f+3       -0.0267229    0.0011173    0.0272239   -0.0885535   -0.0487918
 87   H2 f-3       -0.0000000   -0.0000000    0.0000000    0.0000000   -0.0000000
 88   H3 s0         0.3256449    0.0254858    0.0161124    0.2158570   -0.3498315
 89   H3 s0        -0.9754756   -0.0445385    0.0894924   -0.2960503    0.7153509
 90   H3 s0        -0.8916508   -0.0032906    0.3764852   -0.3534756    0.8417522
 91   H3 s0         0.0777761    0.0077442   -0.0247024    0.1115263   -0.1321802
 92   H3 p0        -0.1536984   -0.0268324   -0.0913469   -0.2402320    0.2766521
 93   H3 p+1        0.1979596    0.0436162    0.0547878    0.2438070   -0.2643276
 94   H3 p-1       -0.0000000    0.0000000   -0.0000000   -0.0000000   -0.0000000
 95   H3 p0         0.6276231    0.0120348    0.0696097    0.4254225   -0.6636923
 96   H3 p+1       -0.6944613   -0.0805308    0.0026398   -0.4136015    0.6518457
 97   H3 p-1        0.0000000   -0.0000000    0.0000000    0.0000000    0.0000000
 98   H3 p0         0.4374429   -0.1031498   -0.1214563    0.1208239   -0.4359677
 99   H3 p+1       -0.4564126   -0.0712940    0.1672279   -0.1980551    0.3977574
 100  H3 p-1       -0.0000000    0.0000000   -0.0000000   -0.0000000   -0.0000000
 101  H3 d0        -0.0227174   -0.0189133    0.0154290   -0.0045590    0.0153026
 102  H3 d+1        0.1297294   -0.0169696   -0.0231601   -0.0027158   -0.0340115
 103  H3 d-1       -0.0000000   -0.0000000    0.0000000    0.0000000   -0.0000000
 104  H3 d+2       -0.0818218    0.0025287    0.0035707    0.0226471    0.0162707
 105  H3 d-2        0.0000000    0.0000000    0.0000000    0.0000000   -0.0000000
 106  H3 d0        -0.0202722    0.1068996   -0.0552637   -0.0770475    0.1774838
 107  H3 d+1        0.3521428    0.0272436    0.0757630    0.3514354   -0.5076138
 108  H3 d-1        0.0000000   -0.0000000   -0.0000000    0.0000000   -0.0000000
 109  H3 d+2       -0.1801584   -0.0588949    0.0083228   -0.2205017    0.2403463
 110  H3 d-2        0.0000000    0.0000000   -0.0000000   -0.0000000    0.0000000
 111  H3 f0        -0.1137935    0.0141257   -0.0387385   -0.0607888   -0.0017208
 112  H3 f+1        0.0129256   -0.0194419   -0.1097948   -0.1626312    0.1538969
 113  H3 f-1       -0.0000000   -0.0000000    0.0000000   -0.0000000    0.0000000
 114  H3 f+2        0.0711869    0.0130128    0.0939462    0.1942450   -0.1252534
 115  H3 f-2       -0.0000000    0.0000000    0.0000000    0.0000000   -0.0000000
 116  H3 f+3       -0.0267229   -0.0011173   -0.0272239   -0.0885535    0.0487918
 117  H3 f-3        0.0000000    0.0000000    0.0000000   -0.0000000   -0.0000000

            Ene    12.6885357   12.7110606   12.9259863   13.4700851   14.0361508
            Sym             A            A            A            A            A
            Occ             0            0            0            0            0


                         116          117

 1    O1 s0         0.0577666    7.5398793
 2    O1 s0         2.1173220   -8.6339902
 3    O1 s0        -4.9729688    2.4575318
 4    O1 s0         4.5116598   -2.0272069
 5    O1 s0        -2.7045219    1.1750727
 6    O1 s0         1.7191957   -0.7594937
 7    O1 s0        -0.0944559    0.0445852
 8    O1 p0        -0.0193520    0.0080462
 9    O1 p+1       -0.0000000    0.0000000
 10   O1 p-1        0.0000000   -0.0000000
 11   O1 p0        -0.0427993    0.0187903
 12   O1 p+1        0.0000000    0.0000000
 13   O1 p-1       -0.0000000    0.0000000
 14   O1 p0         0.5039596   -0.2230215
 15   O1 p+1        0.0000000   -0.0000000
 16   O1 p-1        0.0000000   -0.0000000
 17   O1 p0        -0.0846529    0.0383391
 18   O1 p+1        0.0000000   -0.0000000
 19   O1 p-1       -0.0000000    0.0000000
 20   O1 d0        -0.0070815    0.0025932
 21   O1 d+1        0.0000000   -0.0000000
 22   O1 d-1       -0.0000000   -0.0000000
 23   O1 d+2       -0.0126952    0.0045688
 24   O1 d-2       -0.0000000   -0.0000000
 25   O1 d0         0.0063417   -0.0025139
 26   O1 d+1       -0.0000000    0.0000000
 27   O1 d-1        0.0000000    0.0000000
 28   O1 d+2        0.0119916   -0.0045379
 29   O1 d-2       -0.0000000    0.0000000
 30   O1 d0         0.0875604   -0.0382289
 31   O1 d+1        0.0000000   -0.0000000
 32   O1 d-1       -0.0000000    0.0000000
 33   O1 d+2        0.1500866   -0.0659091
 34   O1 d-2       -0.0000000   -0.0000000
 35   O1 f0         0.0078903   -0.0031185
 36   O1 f+1       -0.0000000    0.0000000
 37   O1 f-1        0.0000000    0.0000000
 38   O1 f+2       -0.0353457    0.0137588
 39   O1 f-2        0.0000000    0.0000000
 40   O1 f+3        0.0000000    0.0000000
 41   O1 f-3       -0.0000000   -0.0000000
 42   O1 f0        -0.0321080    0.0137549
 43   O1 f+1        0.0000000   -0.0000000
 44   O1 f-1       -0.0000000    0.0000000
 45   O1 f+2        0.1348026   -0.0573546
 46   O1 f-2       -0.0000000    0.0000000
 47   O1 f+3        0.0000000   -0.0000000
 48   O1 f-3       -0.0000000    0.0000000
 49   O1 g0        -0.0206449    0.0082377
 50   O1 g+1        0.0000000   -0.0000000
 51   O1 g-1       -0.0000000   -0.0000000
 52   O1 g+2        0.0365976   -0.0145666
 53   O1 g-2       -0.0000000    0.0000000
 54   O1 g+3       -0.0000000   -0.0000000
 55   O1 g-3       -0.0000000    0.0000000
 56   O1 g+4        0.0101421   -0.0040106
 57   O1 g-4       -0.0000000    0.0000000
 58   H2 s0         0.0665419   -0.0276282
 59   H2 s0        -0.1390016    0.0568262
 60   H2 s0        -0.2298118    0.1050108
 61   H2 s0         0.0664826   -0.0307428
 62   H2 p0        -0.0472086    0.0200908
 63   H2 p+1       -0.0500825    0.0211984
 64   H2 p-1       -0.0000000    0.0000000
 65   H2 p0         0.1374492   -0.0587792
 66   H2 p+1        0.1478583   -0.0631687
 67   H2 p-1        0.0000000   -0.0000000
 68   H2 p0         0.1204039   -0.0548094
 69   H2 p+1        0.1121053   -0.0509930
 70   H2 p-1       -0.0000000    0.0000000
 71   H2 d0         0.0001070   -0.0003804
 72   H2 d+1        0.0034622   -0.0023717
 73   H2 d-1       -0.0000000    0.0000000
 74   H2 d+2        0.0031512   -0.0017495
 75   H2 d-2        0.0000000    0.0000000
 76   H2 d0        -0.0379823    0.0171367
 77   H2 d+1       -0.1355633    0.0610573
 78   H2 d-1       -0.0000000    0.0000000
 79   H2 d+2       -0.0727814    0.0326341
 80   H2 d-2       -0.0000000    0.0000000
 81   H2 f0        -0.0005278    0.0005064
 82   H2 f+1        0.0193423   -0.0089042
 83   H2 f-1        0.0000000   -0.0000000
 84   H2 f+2        0.0199191   -0.0092390
 85   H2 f-2       -0.0000000    0.0000000
 86   H2 f+3        0.0094090   -0.0042939
 87   H2 f-3        0.0000000   -0.0000000
 88   H3 s0         0.0665419   -0.0276282
 89   H3 s0        -0.1390016    0.0568262
 90   H3 s0        -0.2298118    0.1050108
 91   H3 s0         0.0664826   -0.0307428
 92   H3 p0        -0.0472086    0.0200908
 93   H3 p+1        0.0500825   -0.0211984
 94   H3 p-1        0.0000000   -0.0000000
 95   H3 p0         0.1374492   -0.0587792
 96   H3 p+1       -0.1478583    0.0631687
 97   H3 p-1       -0.0000000    0.0000000
 98   H3 p0         0.1204039   -0.0548094
 99   H3 p+1       -0.1121053    0.0509930
 100  H3 p-1        0.0000000   -0.0000000
 101  H3 d0         0.0001070   -0.0003804
 102  H3 d+1       -0.0034622    0.0023717
 103  H3 d-1        0.0000000   -0.0000000
 104  H3 d+2        0.0031512   -0.0017495
 105  H3 d-2       -0.0000000   -0.0000000
 106  H3 d0        -0.0379823    0.0171367
 107  H3 d+1        0.1355633   -0.0610573
 108  H3 d-1       -0.0000000    0.0000000
 109  H3 d+2       -0.0727814    0.0326341
 110  H3 d-2        0.0000000   -0.0000000
 111  H3 f0        -0.0005278    0.0005064
 112  H3 f+1       -0.0193423    0.0089042
 113  H3 f-1        0.0000000    0.0000000
 114  H3 f+2        0.0199191   -0.0092390
 115  H3 f-2        0.0000000   -0.0000000
 116  H3 f+3       -0.0094090    0.0042939
 117  H3 f-3        0.0000000    0.0000000

            Ene    48.5152596  255.2446645
            Sym             A            A
            Occ             0            0


*** tstop() called on luke-pc at Mon Nov 20 15:16:44 2017
Module time:
	user time   =       4.85 seconds =       0.08 minutes
	system time =       2.95 seconds =       0.05 minutes
	total time  =          8 seconds =       0.13 minutes
Total time:
	user time   =       4.85 seconds =       0.08 minutes
	system time =       2.95 seconds =       0.05 minutes
	total time  =          8 seconds =       0.13 minutes

*** tstart() called on luke-pc
*** at Mon Nov 20 15:16:44 2017


  //>>>>>>>>>>>>>>>>>>>>>>>>>>>>>>>>>>>//
  //               DFMP2               //
  //<<<<<<<<<<<<<<<<<<<<<<<<<<<<<<<<<<<//

   => Loading Basis Set <=

    Name: (DEF2-QZVPP AUX)
    Role: RIFIT
    Keyword: DF_BASIS_MP2
    atoms 1   entry O          line   406 file /home/luke/Projects/psi4_build/psi_5/share/psi4/basis/def2-qzvpp-ri.gbs 
    atoms 2-3 entry H          line    24 file /home/luke/Projects/psi4_build/psi_5/share/psi4/basis/def2-qzvpp-ri.gbs 

	 --------------------------------------------------------
	                          DF-MP2                         
	      2nd-Order Density-Fitted Moller-Plesset Theory     
	              RMP2 Wavefunction,   1 Threads             
	                                                         
	        Rob Parrish, Justin Turney, Andy Simmonett,      
	           Ed Hohenstein, and C. David Sherrill          
	 --------------------------------------------------------

   => Auxiliary Basis Set <=

  Basis Set: (DEF2-QZVPP AUX)
    Blend: DEF2-QZVPP-RI
    Number of shells: 65
    Number of basis function: 253
    Number of Cartesian functions: 333
    Spherical Harmonics?: true
    Max angular momentum: 5

	 --------------------------------------------------------
	                 NBF =   117, NAUX =   253
	 --------------------------------------------------------
	   CLASS    FOCC     OCC    AOCC    AVIR     VIR    FVIR
	   PAIRS       0       5       5     112     112       0
	 --------------------------------------------------------

	-----------------------------------------------------------
	 ==================> DF-MP2 Energies <==================== 
	-----------------------------------------------------------
	 Reference Energy          =     -75.8659186905930056 [Eh]
	 Singles Energy            =      -0.0000000000002754 [Eh]
	 Same-Spin Energy          =      -0.0788308452099773 [Eh]
	 Opposite-Spin Energy      =      -0.2705413397245112 [Eh]
	 Correlation Energy        =      -0.3493721849347640 [Eh]
	 Total Energy              =     -76.2152908755277707 [Eh]
	-----------------------------------------------------------
	 ================> DF-SCS-MP2 Energies <================== 
	-----------------------------------------------------------
	 SCS Same-Spin Scale       =       0.3333333333333333 [-]
	 SCS Opposite-Spin Scale   =       1.2000000000000000 [-]
	 SCS Same-Spin Energy      =      -0.0262769484033258 [Eh]
	 SCS Opposite-Spin Energy  =      -0.3246496076694134 [Eh]
	 SCS Correlation Energy    =      -0.3509265560730146 [Eh]
	 SCS Total Energy          =     -76.2168452466660256 [Eh]
	-----------------------------------------------------------


*** tstop() called on luke-pc at Mon Nov 20 15:16:44 2017
Module time:
	user time   =       0.36 seconds =       0.01 minutes
	system time =       0.01 seconds =       0.00 minutes
	total time  =          0 seconds =       0.00 minutes
Total time:
	user time   =       5.21 seconds =       0.09 minutes
	system time =       2.96 seconds =       0.05 minutes
	total time  =          8 seconds =       0.13 minutes

Reading options from the SYSHFWPLUG block
Calling plugin syshfwplug.so.


    Molecular point group: c1
    Full point group: C2v

    Geometry (in Angstrom), charge = 0, multiplicity = 1:

       Center              X                  Y                   Z               Mass       
    ------------   -----------------  -----------------  -----------------  -----------------
           O          0.000000000000     0.000000000000    -0.111914873272    15.994914619560
           H          1.000000000000     0.000000000000     0.888085126728     1.007825032070
           H         -1.000000000000     0.000000000000     0.888085126728     1.007825032070


    Nuclear repulsion energy:       6.25154529


*** Psi4 exiting successfully. Buy a developer a beer!
