
    -----------------------------------------------------------------------
          Psi4: An Open-Source Ab Initio Electronic Structure Package
                               Psi4 1.2a1.dev547 

                         Git: Rev {master} f5560a0 


    R. M. Parrish, L. A. Burns, D. G. A. Smith, A. C. Simmonett,
    A. E. DePrince III, E. G. Hohenstein, U. Bozkaya, A. Yu. Sokolov,
    R. Di Remigio, R. M. Richard, J. F. Gonthier, A. M. James,
    H. R. McAlexander, A. Kumar, M. Saitow, X. Wang, B. P. Pritchard,
    P. Verma, H. F. Schaefer III, K. Patkowski, R. A. King, E. F. Valeev,
    F. A. Evangelista, J. M. Turney, T. D. Crawford, and C. D. Sherrill,
    J. Chem. Theory Comput. 13(7) pp 3185--3197 (2017).
    (doi: 10.1021/acs.jctc.7b00174)

    -----------------------------------------------------------------------


    Psi4 started on: Sunday, 19 November 2017 01:30AM

    Process ID:  11725
    PSIDATADIR: /home/i/ihamilto/ehlert/psi4build/share/psi4
    Memory:     500.0 MiB
    Threads:    1
    
  ==> Input File <==

--------------------------------------------------------------------------

# PYTHONPATH must include directory above plugin directory.
#     Define either externally or here, then import plugin.
sys.path.insert(0, './..')
import syshfwplug


plugin_load("./syshfwplug.so")


molecule {
Au 0.0 0.0 0.0 
Au 2.5 0.0 0.0
symmetry c1
}

set {
  basis def2-svp
}

set syshfwplug {
  pref mytest
  do_tei 1
  print 1
}

set scf reference uhf
set scf_type pk
set scf PRINT_MOS  true


e_scf,ref_wfn = energy('scf',return_wfn=True)

ref_wfn.Da().print_out()

plugin("syshfwplug.so", ref_wfn)
#syshfwplug.exampleFN(ref_wfn)
--------------------------------------------------------------------------
/bg01/homescinet/i/ihamilto/ehlert/corr/syshfwplug/syshfwplug.so loaded.

*** tstart() called on gpc-f102n003-ib0
*** at Sun Nov 19 01:30:17 2017

   => Loading Basis Set <=

    Name: DEF2-SVP
    Role: ORBITAL
    Keyword: BASIS
    atoms 1-2 entry AU         line  2095 (ECP: line  3066) file /home/i/ihamilto/ehlert/psi4build/share/psi4/basis/def2-svp.gbs 

    There are an even number of electrons - assuming singlet.
    Specify the multiplicity in the molecule input block.


         ---------------------------------------------------------
                                   SCF
            by Justin Turney, Rob Parrish, Andy Simmonett
                             and Daniel Smith
                              UHF Reference
                        1 Threads,    500 MiB Core
         ---------------------------------------------------------

  ==> Geometry <==

    Molecular point group: c1
    Full point group: D_inf_h

    Geometry (in Angstrom), charge = 0, multiplicity = 1:

       Center              X                  Y                   Z               Mass       
    ------------   -----------------  -----------------  -----------------  -----------------
          AU         -1.250000000000     0.000000000000     0.000000000000   196.966568662000
          AU          1.250000000000     0.000000000000     0.000000000000   196.966568662000

  Running in c1 symmetry.

  Rotational constants: A = ************  B =      0.02739  C =      0.02739 [cm^-1]
  Rotational constants: A = ************  B =    821.05955  C =    821.05955 [MHz]
  Nuclear repulsion =   76.413188920396010

  Charge       = 0
  Multiplicity = 1
  Electrons    = 38
  Nalpha       = 19
  Nbeta        = 19

  ==> Algorithm <==

  SCF Algorithm Type is PK.
  DIIS enabled.
  MOM disabled.
  Fractional occupation disabled.
  Guess Type is GWH.
  Energy threshold   = 1.00e-06
  Density threshold  = 1.00e-06
  Integral threshold = 0.00e+00

  ==> Primary Basis <==

  Basis Set: DEF2-SVP
    Blend: DEF2-SVP
    Number of shells: 24
    Number of basis function: 64
    Number of Cartesian functions: 74
    Spherical Harmonics?: true
    Max angular momentum: 3

  Core potential: DEF2-SVP
    Number of shells: 8
    Number of ECP primitives: 28
    Number of ECP core electrons: 120
    Max angular momentum: 3

  ==> Pre-Iterations <==

   -------------------------------------------------------
    Irrep   Nso     Nmo     Nalpha   Nbeta   Ndocc  Nsocc
   -------------------------------------------------------
     A         64      64       0       0       0       0
   -------------------------------------------------------
    Total      64      64      19      19      19       0
   -------------------------------------------------------

  ==> Integral Setup <==

  Using in-core PK algorithm.
   Calculation information:
      Number of atoms:                   2
      Number of AO shells:              24
      Number of primitives:             38
      Number of atomic orbitals:        74
      Number of basis functions:        64

      Integral cutoff                 1.00e-12
      Number of threads:                 1

  Performing in-core PK
  Using 4328480 doubles for integral storage.
  We computed 43281 shell quartets total.
  Whereas there are 45150 unique shell quartets.
  ==> DiskJK: Disk-Based J/K Matrices <==

    J tasked:                  Yes
    K tasked:                  Yes
    wK tasked:                  No
    Memory (MB):               375
    Schwarz Cutoff:          1E-12

    OpenMP threads:              1
  Minimum eigenvalue in the overlap matrix is 5.6592617467E-03.
  Using Symmetric Orthogonalization.

  SCF Guess: Generalized Wolfsberg-Helmholtz.

  ==> Iterations <==

                        Total Energy        Delta E     RMS |[F,P]|

   @UHF iter   1:    69.36713807939742    6.93671e+01   2.23765e+00 
   @UHF iter   2:  -269.31968546553134   -3.38687e+02   1.37869e-02 DIIS
   @UHF iter   3:  -269.53532369682182   -2.15638e-01   5.04317e-03 DIIS
   @UHF iter   4:  -269.58460387280513   -4.92802e-02   1.20452e-03 DIIS
   @UHF iter   5:  -269.59111451646902   -6.51064e-03   4.76319e-04 DIIS
   @UHF iter   6:  -269.59267049840332   -1.55598e-03   2.68490e-04 DIIS
   @UHF iter   7:  -269.59375034372425   -1.07985e-03   7.43703e-05 DIIS
   @UHF iter   8:  -269.59385235200494   -1.02008e-04   1.41690e-05 DIIS
   @UHF iter   9:  -269.59385487666174   -2.52466e-06   1.80945e-06 DIIS
   @UHF iter  10:  -269.59385489781738   -2.11556e-08   3.45923e-07 DIIS

  ==> Post-Iterations <==

   @Spin Contamination Metric:   2.486899575E-14
   @S^2 Expected:                0.000000000E+00
   @S^2 Observed:                2.486899575E-14
   @S   Expected:                0.000000000E+00
   @S   Observed:                0.000000000E+00

    Orbital Energies (a.u.)
    -----------------------

    Alpha Occupied:                                                       

       1A     -4.687986     2A     -4.687035     3A     -2.738483  
       4A     -2.722520     5A     -2.722520     6A     -2.721824  
       7A     -2.721140     8A     -2.721139     9A     -0.515926  
      10A     -0.490871    11A     -0.490871    12A     -0.452654  
      13A     -0.452654    14A     -0.438950    15A     -0.438950  
      16A     -0.418287    17A     -0.418287    18A     -0.403843  
      19A     -0.291366  

    Alpha Virtual:                                                        

      20A     -0.007277    21A      0.068307    22A      0.068308  
      23A      0.092512    24A      0.141508    25A      0.141508  
      26A      0.210742    27A      0.259800    28A      0.322117  
      29A      0.594145    30A      0.594145    31A      0.632261  
      32A      0.632261    33A      0.670986    34A      0.692983  
      35A      0.692983    36A      0.772890    37A      0.772891  
      38A      0.798623    39A      0.976662    40A      1.028286  
      41A      1.028286    42A      1.097684    43A      1.097684  
      44A      1.514770    45A      1.772749    46A      1.772750  
      47A      1.780932    48A      1.834527    49A      1.834527  
      50A      1.859861    51A      1.859861    52A      1.863167  
      53A      1.863167    54A      1.878735    55A      1.878735  
      56A      1.999768    57A      1.999769    58A      2.130635  
      59A      2.267767    60A      2.400316    61A     43.104527  
      62A     43.138437    63A    202.730064    64A    202.747647  

    Beta Occupied:                                                        

       1A     -4.687986     2A     -4.687035     3A     -2.738483  
       4A     -2.722520     5A     -2.722520     6A     -2.721824  
       7A     -2.721140     8A     -2.721139     9A     -0.515926  
      10A     -0.490871    11A     -0.490871    12A     -0.452654  
      13A     -0.452654    14A     -0.438950    15A     -0.438950  
      16A     -0.418287    17A     -0.418287    18A     -0.403843  
      19A     -0.291366  

    Beta Virtual:                                                         

      20A     -0.007277    21A      0.068307    22A      0.068308  
      23A      0.092512    24A      0.141508    25A      0.141508  
      26A      0.210742    27A      0.259800    28A      0.322117  
      29A      0.594145    30A      0.594145    31A      0.632261  
      32A      0.632261    33A      0.670986    34A      0.692983  
      35A      0.692983    36A      0.772890    37A      0.772891  
      38A      0.798623    39A      0.976662    40A      1.028286  
      41A      1.028286    42A      1.097684    43A      1.097684  
      44A      1.514770    45A      1.772749    46A      1.772750  
      47A      1.780932    48A      1.834527    49A      1.834527  
      50A      1.859861    51A      1.859861    52A      1.863167  
      53A      1.863167    54A      1.878735    55A      1.878735  
      56A      1.999768    57A      1.999769    58A      2.130635  
      59A      2.267767    60A      2.400316    61A     43.104527  
      62A     43.138437    63A    202.730064    64A    202.747647  

    Final Occupation by Irrep:
              A 
    DOCC [    19 ]
    SOCC [     0 ]

  Energy converged.

  @UHF Final Energy:  -269.59385489781738

   => Energetics <=

    Nuclear Repulsion Energy =             76.4131889203960100
    One-Electron Energy =                -630.9433657045624386
    Two-Electron Energy =                 284.9363218863490488
    Total Energy =                       -269.5938548978173799


  UHF NO Occupations:
  HONO-2 :   17  A 2.0000000
  HONO-1 :   18  A 2.0000000
  HONO-0 :   19  A 2.0000000
  LUNO+0 :   20  A 0.0000000
  LUNO+1 :   21  A 0.0000000
  LUNO+2 :   22  A 0.0000000
  LUNO+3 :   23  A 0.0000000



Properties will be evaluated at   0.000000,   0.000000,   0.000000 Bohr

Properties computed using the SCF density matrix

  Nuclear Dipole Moment: (a.u.)
     X:     0.0000      Y:     0.0000      Z:     0.0000

  Electronic Dipole Moment: (a.u.)
     X:     0.0000      Y:     0.0000      Z:    -0.0000

  Dipole Moment: (a.u.)
     X:     0.0000      Y:     0.0000      Z:    -0.0000     Total:     0.0000

  Dipole Moment: (Debye)
     X:     0.0000      Y:     0.0000      Z:    -0.0000     Total:     0.0000


  ==> Alpha-Spin Molecular Orbitals <==

                            1            2            3            4            5

 1    AU1 s0        0.2773433    0.2775653    0.0002344    0.0000000   -0.0000000
 2    AU1 s0       -0.6753163   -0.6758654   -0.0006219   -0.0000000    0.0000000
 3    AU1 s0        0.7016946    0.7024632    0.0018758    0.0000000   -0.0000000
 4    AU1 s0        0.2488719    0.2489538   -0.0029279   -0.0000000   -0.0000000
 5    AU1 s0        0.0059451    0.0055329    0.0017839   -0.0000000    0.0000000
 6    AU1 s0       -0.0008921   -0.0038417    0.0000181    0.0000000   -0.0000000
 7    AU1 p0        0.0000000    0.0000000    0.0000000    0.6530161    0.0000000
 8    AU1 p+1      -0.0020192   -0.0021500    0.6502455    0.0000000   -0.0000000
 9    AU1 p-1       0.0000000    0.0000000    0.0000000   -0.0000000    0.6530159
 10   AU1 p0        0.0000000    0.0000000    0.0000000    0.0753215    0.0000000
 11   AU1 p+1      -0.0003637   -0.0011150    0.0749900    0.0000000   -0.0000000
 12   AU1 p-1      -0.0000000   -0.0000000    0.0000000   -0.0000000    0.0753218
 13   AU1 p0       -0.0000000    0.0000000    0.0000000    0.0011769    0.0000000
 14   AU1 p+1      -0.0000926   -0.0017782    0.0009870    0.0000000   -0.0000000
 15   AU1 p-1      -0.0000000    0.0000000    0.0000000   -0.0000000    0.0011769
 16   AU1 d0       -0.0009315   -0.0007968    0.0002113    0.0000000   -0.0000000
 17   AU1 d+1       0.0000000   -0.0000000   -0.0000000   -0.0022400   -0.0000000
 18   AU1 d-1       0.0000000   -0.0000000   -0.0000000   -0.0000000    0.0000000
 19   AU1 d+2       0.0016137    0.0013803   -0.0003663   -0.0000000    0.0000000
 20   AU1 d-2      -0.0000000   -0.0000000   -0.0000000    0.0000000   -0.0022399
 21   AU1 d0        0.0002039    0.0004778   -0.0007697   -0.0000000    0.0000000
 22   AU1 d+1      -0.0000000    0.0000000    0.0000000    0.0004886    0.0000000
 23   AU1 d-1       0.0000000    0.0000000    0.0000000   -0.0000000    0.0000000
 24   AU1 d+2      -0.0003533   -0.0008276    0.0013333    0.0000000   -0.0000000
 25   AU1 d-2       0.0000000    0.0000000   -0.0000000   -0.0000000    0.0004884
 26   AU1 f0        0.0000000    0.0000000   -0.0000000   -0.0006737   -0.0000000
 27   AU1 f+1      -0.0001103    0.0000393   -0.0010347   -0.0000000    0.0000000
 28   AU1 f-1      -0.0000000   -0.0000000    0.0000000    0.0000000   -0.0002750
 29   AU1 f+2      -0.0000000   -0.0000000    0.0000000    0.0008698    0.0000000
 30   AU1 f-2      -0.0000000    0.0000000    0.0000000   -0.0000000    0.0000000
 31   AU1 f+3       0.0001424   -0.0000507    0.0013358    0.0000000   -0.0000000
 32   AU1 f-3       0.0000000    0.0000000   -0.0000000   -0.0000000    0.0010653
 33   AU2 s0        0.2773433   -0.2775653    0.0002344   -0.0000000    0.0000000
 34   AU2 s0       -0.6753163    0.6758654   -0.0006219    0.0000000   -0.0000000
 35   AU2 s0        0.7016946   -0.7024632    0.0018758   -0.0000000    0.0000000
 36   AU2 s0        0.2488719   -0.2489538   -0.0029279    0.0000000   -0.0000000
 37   AU2 s0        0.0059451   -0.0055329    0.0017839    0.0000000   -0.0000000
 38   AU2 s0       -0.0008921    0.0038417    0.0000181   -0.0000000    0.0000000
 39   AU2 p0       -0.0000000   -0.0000000    0.0000000    0.6530161    0.0000000
 40   AU2 p+1       0.0020192   -0.0021500   -0.6502455    0.0000000   -0.0000000
 41   AU2 p-1       0.0000000    0.0000000   -0.0000000   -0.0000000    0.6530159
 42   AU2 p0        0.0000000    0.0000000    0.0000000    0.0753215    0.0000000
 43   AU2 p+1       0.0003637   -0.0011150   -0.0749900    0.0000000   -0.0000000
 44   AU2 p-1      -0.0000000   -0.0000000    0.0000000   -0.0000000    0.0753218
 45   AU2 p0        0.0000000   -0.0000000   -0.0000000    0.0011769    0.0000000
 46   AU2 p+1       0.0000926   -0.0017782   -0.0009870    0.0000000   -0.0000000
 47   AU2 p-1       0.0000000   -0.0000000   -0.0000000   -0.0000000    0.0011769
 48   AU2 d0       -0.0009315    0.0007968    0.0002113   -0.0000000    0.0000000
 49   AU2 d+1       0.0000000    0.0000000   -0.0000000    0.0022400    0.0000000
 50   AU2 d-1       0.0000000   -0.0000000    0.0000000   -0.0000000    0.0000000
 51   AU2 d+2       0.0016137   -0.0013803   -0.0003663    0.0000000   -0.0000000
 52   AU2 d-2      -0.0000000    0.0000000   -0.0000000   -0.0000000    0.0022399
 53   AU2 d0        0.0002039   -0.0004778   -0.0007697    0.0000000   -0.0000000
 54   AU2 d+1      -0.0000000    0.0000000    0.0000000   -0.0004886   -0.0000000
 55   AU2 d-1      -0.0000000   -0.0000000    0.0000000   -0.0000000   -0.0000000
 56   AU2 d+2      -0.0003533    0.0008276    0.0013333   -0.0000000    0.0000000
 57   AU2 d-2      -0.0000000    0.0000000   -0.0000000    0.0000000   -0.0004884
 58   AU2 f0       -0.0000000   -0.0000000    0.0000000   -0.0006737   -0.0000000
 59   AU2 f+1       0.0001103    0.0000393    0.0010347   -0.0000000    0.0000000
 60   AU2 f-1       0.0000000   -0.0000000   -0.0000000    0.0000000   -0.0002750
 61   AU2 f+2       0.0000000    0.0000000    0.0000000    0.0008698    0.0000000
 62   AU2 f-2       0.0000000    0.0000000    0.0000000    0.0000000    0.0000000
 63   AU2 f+3      -0.0001424   -0.0000507   -0.0013358    0.0000000   -0.0000000
 64   AU2 f-3       0.0000000   -0.0000000    0.0000000   -0.0000000    0.0010653

            Ene    -4.6879864   -4.6870348   -2.7384834   -2.7225201   -2.7225196
            Sym             A            A            A            A            A
            Occ             1            1            1            1            1


                            6            7            8            9           10

 1    AU1 s0        0.0029140   -0.0000000    0.0000000    0.0211798   -0.0000000
 2    AU1 s0       -0.0073233    0.0000000   -0.0000000   -0.0538011   -0.0000000
 3    AU1 s0        0.0111698   -0.0000000    0.0000000    0.0790072    0.0000000
 4    AU1 s0       -0.0019648    0.0000000   -0.0000000    0.0243537   -0.0000000
 5    AU1 s0       -0.0029899   -0.0000000   -0.0000000   -0.0718037   -0.0000000
 6    AU1 s0        0.0065425    0.0000000    0.0000000   -0.0004498   -0.0000000
 7    AU1 p0       -0.0000000    0.6542958    0.0000000    0.0000000    0.0150574
 8    AU1 p+1       0.6581334    0.0000000    0.0000000    0.0570542    0.0000000
 9    AU1 p-1       0.0000000   -0.0000000    0.6542956    0.0000000   -0.0000000
 10   AU1 p0       -0.0000000    0.0747552    0.0000000   -0.0000000   -0.0027911
 11   AU1 p+1       0.0732451    0.0000000    0.0000000   -0.0172464   -0.0000000
 12   AU1 p-1       0.0000000   -0.0000000    0.0747555   -0.0000000    0.0000000
 13   AU1 p0       -0.0000000    0.0011518    0.0000000   -0.0000000   -0.0074449
 14   AU1 p+1       0.0042737    0.0000000    0.0000000   -0.0171204   -0.0000000
 15   AU1 p-1      -0.0000000   -0.0000000    0.0011518    0.0000000    0.0000000
 16   AU1 d0        0.0025078    0.0000000    0.0000000    0.2976308   -0.0000000
 17   AU1 d+1       0.0000000   -0.0026406   -0.0000000   -0.0000000   -0.6045061
 18   AU1 d-1      -0.0000000   -0.0000000    0.0000000    0.0000000   -0.0000000
 19   AU1 d+2      -0.0043439   -0.0000000   -0.0000000   -0.5154926    0.0000000
 20   AU1 d-2      -0.0000000    0.0000000   -0.0026404    0.0000000    0.0000000
 21   AU1 d0       -0.0008497   -0.0000000   -0.0000000    0.0709892   -0.0000000
 22   AU1 d+1      -0.0000000    0.0001583    0.0000000   -0.0000000   -0.1452773
 23   AU1 d-1      -0.0000000   -0.0000000    0.0000000    0.0000000   -0.0000000
 24   AU1 d+2       0.0014718    0.0000000    0.0000000   -0.1229530   -0.0000000
 25   AU1 d-2       0.0000000   -0.0000000    0.0001582    0.0000000    0.0000000
 26   AU1 f0        0.0000000   -0.0004541   -0.0000000    0.0000000    0.0017731
 27   AU1 f+1      -0.0003211   -0.0000000   -0.0000000    0.0041012   -0.0000000
 28   AU1 f-1      -0.0000000    0.0000000   -0.0001854   -0.0000000   -0.0000000
 29   AU1 f+2      -0.0000000    0.0005863    0.0000000   -0.0000000   -0.0022891
 30   AU1 f-2       0.0000000   -0.0000000    0.0000000   -0.0000000    0.0000000
 31   AU1 f+3       0.0004145    0.0000000    0.0000000   -0.0052948    0.0000000
 32   AU1 f-3       0.0000000   -0.0000000    0.0007182    0.0000000    0.0000000
 33   AU2 s0       -0.0029140    0.0000000   -0.0000000    0.0211798   -0.0000000
 34   AU2 s0        0.0073233   -0.0000000    0.0000000   -0.0538011    0.0000000
 35   AU2 s0       -0.0111698    0.0000000   -0.0000000    0.0790072   -0.0000000
 36   AU2 s0        0.0019648   -0.0000000    0.0000000    0.0243537    0.0000000
 37   AU2 s0        0.0029899    0.0000000    0.0000000   -0.0718037    0.0000000
 38   AU2 s0       -0.0065425   -0.0000000   -0.0000000   -0.0004498    0.0000000
 39   AU2 p0       -0.0000000   -0.6542958   -0.0000000    0.0000000    0.0150574
 40   AU2 p+1       0.6581334    0.0000000    0.0000000   -0.0570542   -0.0000000
 41   AU2 p-1       0.0000000    0.0000000   -0.6542956    0.0000000   -0.0000000
 42   AU2 p0       -0.0000000   -0.0747552   -0.0000000   -0.0000000   -0.0027911
 43   AU2 p+1       0.0732451    0.0000000    0.0000000    0.0172464    0.0000000
 44   AU2 p-1       0.0000000    0.0000000   -0.0747555   -0.0000000    0.0000000
 45   AU2 p0       -0.0000000   -0.0011518   -0.0000000    0.0000000   -0.0074449
 46   AU2 p+1       0.0042737    0.0000000    0.0000000    0.0171204   -0.0000000
 47   AU2 p-1       0.0000000    0.0000000   -0.0011518   -0.0000000    0.0000000
 48   AU2 d0       -0.0025078   -0.0000000   -0.0000000    0.2976308   -0.0000000
 49   AU2 d+1      -0.0000000   -0.0026406   -0.0000000    0.0000000    0.6045061
 50   AU2 d-1      -0.0000000   -0.0000000   -0.0000000    0.0000000   -0.0000000
 51   AU2 d+2       0.0043439    0.0000000    0.0000000   -0.5154926   -0.0000000
 52   AU2 d-2       0.0000000    0.0000000   -0.0026404   -0.0000000   -0.0000000
 53   AU2 d0        0.0008497    0.0000000    0.0000000    0.0709892   -0.0000000
 54   AU2 d+1       0.0000000    0.0001583    0.0000000    0.0000000    0.1452773
 55   AU2 d-1       0.0000000   -0.0000000   -0.0000000    0.0000000   -0.0000000
 56   AU2 d+2      -0.0014718   -0.0000000   -0.0000000   -0.1229530   -0.0000000
 57   AU2 d-2      -0.0000000   -0.0000000    0.0001582    0.0000000   -0.0000000
 58   AU2 f0        0.0000000    0.0004541    0.0000000    0.0000000    0.0017731
 59   AU2 f+1      -0.0003211   -0.0000000   -0.0000000   -0.0041012    0.0000000
 60   AU2 f-1      -0.0000000   -0.0000000    0.0001854    0.0000000   -0.0000000
 61   AU2 f+2      -0.0000000   -0.0005863   -0.0000000   -0.0000000   -0.0022891
 62   AU2 f-2       0.0000000   -0.0000000    0.0000000   -0.0000000    0.0000000
 63   AU2 f+3       0.0004145    0.0000000    0.0000000    0.0052948   -0.0000000
 64   AU2 f-3       0.0000000    0.0000000   -0.0007182   -0.0000000    0.0000000

            Ene    -2.7218243   -2.7211399   -2.7211394   -0.5159257   -0.4908714
            Sym             A            A            A            A            A
            Occ             1            1            1            1            1


                           11           12           13           14           15

 1    AU1 s0        0.0000000    0.0000000    0.0000007    0.0000000    0.0000011
 2    AU1 s0       -0.0000000   -0.0000000   -0.0000018   -0.0000000   -0.0000027
 3    AU1 s0       -0.0000000    0.0000000    0.0000030    0.0000000    0.0000042
 4    AU1 s0       -0.0000000    0.0000000    0.0000005    0.0000000    0.0000019
 5    AU1 s0       -0.0000000   -0.0000000   -0.0000055   -0.0000000   -0.0000087
 6    AU1 s0        0.0000000    0.0000000   -0.0000015   -0.0000000   -0.0000009
 7    AU1 p0        0.0000000    0.0000000   -0.0000000    0.0000000   -0.0000000
 8    AU1 p+1      -0.0000000   -0.0000000   -0.0000022   -0.0000000   -0.0000022
 9    AU1 p-1       0.0150569   -0.0000000   -0.0000000    0.0000000   -0.0000000
 10   AU1 p0       -0.0000000   -0.0000000    0.0000000   -0.0000000    0.0000000
 11   AU1 p+1       0.0000000    0.0000000    0.0000017    0.0000000    0.0000009
 12   AU1 p-1      -0.0027906    0.0000000    0.0000000   -0.0000000    0.0000000
 13   AU1 p0       -0.0000000   -0.0000000    0.0000000    0.0000000   -0.0000000
 14   AU1 p+1       0.0000000    0.0000000    0.0000031    0.0000000    0.0000031
 15   AU1 p-1      -0.0074442    0.0000000   -0.0000000   -0.0000000    0.0000000
 16   AU1 d0        0.0000000    0.0000000    0.5379785    0.0000000    0.5482409
 17   AU1 d+1      -0.0000000    0.0000000   -0.0000000   -0.0000000    0.0000000
 18   AU1 d-1      -0.0000000    0.6212096   -0.0000000    0.6330473   -0.0000000
 19   AU1 d+2      -0.0000000    0.0000000    0.3106131    0.0000000    0.3165134
 20   AU1 d-2      -0.6045064   -0.0000000    0.0000000    0.0000000   -0.0000000
 21   AU1 d0        0.0000000    0.0000000    0.1307555    0.0000000    0.1323240
 22   AU1 d+1      -0.0000000    0.0000000   -0.0000000   -0.0000000    0.0000000
 23   AU1 d-1      -0.0000000    0.1509849   -0.0000000    0.1527925   -0.0000000
 24   AU1 d+2      -0.0000000    0.0000000    0.0754949    0.0000000    0.0763933
 25   AU1 d-2      -0.1452771   -0.0000000    0.0000000    0.0000000   -0.0000000
 26   AU1 f0        0.0000000    0.0000000    0.0000000    0.0000000    0.0000000
 27   AU1 f+1       0.0000000   -0.0000000   -0.0012493   -0.0000000   -0.0036888
 28   AU1 f-1       0.0007238    0.0000000   -0.0000000    0.0000000   -0.0000000
 29   AU1 f+2      -0.0000000   -0.0000000    0.0000000    0.0000000    0.0000000
 30   AU1 f-2      -0.0000000   -0.0015801    0.0000000   -0.0046659    0.0000000
 31   AU1 f+3      -0.0000000   -0.0000000   -0.0009675   -0.0000000   -0.0028571
 32   AU1 f-3      -0.0028036    0.0000000   -0.0000000   -0.0000000   -0.0000000
 33   AU2 s0       -0.0000000    0.0000000    0.0000007   -0.0000000   -0.0000011
 34   AU2 s0       -0.0000000   -0.0000000   -0.0000018    0.0000000    0.0000027
 35   AU2 s0        0.0000000    0.0000000    0.0000030   -0.0000000   -0.0000042
 36   AU2 s0       -0.0000000    0.0000000    0.0000005   -0.0000000   -0.0000019
 37   AU2 s0        0.0000000   -0.0000000   -0.0000055    0.0000000    0.0000087
 38   AU2 s0       -0.0000000   -0.0000000   -0.0000015    0.0000000    0.0000009
 39   AU2 p0        0.0000000   -0.0000000   -0.0000000   -0.0000000    0.0000000
 40   AU2 p+1      -0.0000000    0.0000000    0.0000022   -0.0000000   -0.0000022
 41   AU2 p-1       0.0150569    0.0000000   -0.0000000   -0.0000000    0.0000000
 42   AU2 p0       -0.0000000    0.0000000    0.0000000    0.0000000   -0.0000000
 43   AU2 p+1       0.0000000   -0.0000000   -0.0000017    0.0000000    0.0000009
 44   AU2 p-1      -0.0027906   -0.0000000    0.0000000    0.0000000   -0.0000000
 45   AU2 p0       -0.0000000    0.0000000    0.0000000   -0.0000000    0.0000000
 46   AU2 p+1       0.0000000    0.0000000   -0.0000031    0.0000000    0.0000031
 47   AU2 p-1      -0.0074442   -0.0000000    0.0000000    0.0000000   -0.0000000
 48   AU2 d0        0.0000000    0.0000000    0.5379785   -0.0000000   -0.5482409
 49   AU2 d+1       0.0000000    0.0000000   -0.0000000   -0.0000000    0.0000000
 50   AU2 d-1      -0.0000000    0.6212096   -0.0000000   -0.6330473    0.0000000
 51   AU2 d+2       0.0000000    0.0000000    0.3106131   -0.0000000   -0.3165134
 52   AU2 d-2       0.6045064    0.0000000    0.0000000    0.0000000   -0.0000000
 53   AU2 d0        0.0000000    0.0000000    0.1307555   -0.0000000   -0.1323240
 54   AU2 d+1       0.0000000    0.0000000   -0.0000000    0.0000000    0.0000000
 55   AU2 d-1      -0.0000000    0.1509849   -0.0000000   -0.1527925    0.0000000
 56   AU2 d+2       0.0000000    0.0000000    0.0754949   -0.0000000   -0.0763933
 57   AU2 d-2       0.1452771   -0.0000000   -0.0000000    0.0000000   -0.0000000
 58   AU2 f0        0.0000000   -0.0000000    0.0000000    0.0000000   -0.0000000
 59   AU2 f+1      -0.0000000    0.0000000    0.0012493   -0.0000000   -0.0036888
 60   AU2 f-1       0.0007238    0.0000000   -0.0000000   -0.0000000    0.0000000
 61   AU2 f+2      -0.0000000    0.0000000    0.0000000   -0.0000000   -0.0000000
 62   AU2 f-2       0.0000000    0.0015801   -0.0000000   -0.0046659    0.0000000
 63   AU2 f+3      -0.0000000    0.0000000    0.0009675   -0.0000000   -0.0028571
 64   AU2 f-3      -0.0028036   -0.0000000    0.0000000    0.0000000   -0.0000000

            Ene    -0.4908711   -0.4526537   -0.4526536   -0.4389499   -0.4389498
            Sym             A            A            A            A            A
            Occ             1            1            1            1            1


                           16           17           18           19           20

 1    AU1 s0        0.0000000   -0.0000000    0.0252312    0.0931591    0.0674873
 2    AU1 s0       -0.0000000    0.0000000   -0.0644960   -0.2379218   -0.1724428
 3    AU1 s0        0.0000000   -0.0000000    0.1005834    0.3576231    0.2618044
 4    AU1 s0        0.0000000   -0.0000000    0.0234344    0.1252496    0.0881192
 5    AU1 s0       -0.0000000    0.0000000   -0.0859008   -0.3917898   -0.2209650
 6    AU1 s0        0.0000000    0.0000000   -0.2326146   -0.2776143   -0.3688411
 7    AU1 p0       -0.0000000    0.0260480    0.0000000    0.0000000    0.0000000
 8    AU1 p+1       0.0000000   -0.0000000    0.0370739    0.0713178   -0.0885697
 9    AU1 p-1       0.0260482    0.0000000   -0.0000000   -0.0000000   -0.0000000
 10   AU1 p0        0.0000000   -0.0085269   -0.0000000   -0.0000000   -0.0000000
 11   AU1 p+1      -0.0000000    0.0000000   -0.0045004   -0.0272619    0.0075854
 12   AU1 p-1      -0.0085272   -0.0000000   -0.0000000    0.0000000    0.0000000
 13   AU1 p0        0.0000000   -0.0232683   -0.0000000   -0.0000000   -0.0000000
 14   AU1 p+1       0.0000000    0.0000000   -0.1208067   -0.0708690    0.3906368
 15   AU1 p-1      -0.0232688   -0.0000000    0.0000000    0.0000000    0.0000000
 16   AU1 d0       -0.0000000    0.0000000   -0.3146715   -0.0553499    0.0515243
 17   AU1 d+1      -0.0000001    0.6461852    0.0000000    0.0000000   -0.0000000
 18   AU1 d-1      -0.0000000   -0.0000000    0.0000000   -0.0000000    0.0000000
 19   AU1 d+2       0.0000000   -0.0000000    0.5450465    0.0958600   -0.0892593
 20   AU1 d-2       0.6461852    0.0000001   -0.0000000   -0.0000000    0.0000000
 21   AU1 d0       -0.0000000    0.0000000   -0.0743052   -0.0077521    0.0217817
 22   AU1 d+1      -0.0000000    0.1646618    0.0000000    0.0000000   -0.0000000
 23   AU1 d-1      -0.0000000   -0.0000000    0.0000000   -0.0000000   -0.0000000
 24   AU1 d+2       0.0000000   -0.0000000    0.1287053    0.0134226   -0.0377334
 25   AU1 d-2       0.1646617    0.0000000   -0.0000000   -0.0000000   -0.0000000
 26   AU1 f0       -0.0000000    0.0050547    0.0000000    0.0000000   -0.0000000
 27   AU1 f+1       0.0000000    0.0000000    0.0056269    0.0023646   -0.0012369
 28   AU1 f-1       0.0020636    0.0000000    0.0000000   -0.0000000   -0.0000000
 29   AU1 f+2       0.0000000   -0.0065256    0.0000000   -0.0000000    0.0000000
 30   AU1 f-2       0.0000000   -0.0000000    0.0000000    0.0000000   -0.0000000
 31   AU1 f+3       0.0000000    0.0000000   -0.0072643   -0.0030530    0.0015968
 32   AU1 f-3      -0.0079921   -0.0000000   -0.0000000    0.0000000    0.0000000
 33   AU2 s0       -0.0000000    0.0000000   -0.0252312    0.0931591   -0.0674873
 34   AU2 s0        0.0000000   -0.0000000    0.0644960   -0.2379218    0.1724428
 35   AU2 s0        0.0000000    0.0000000   -0.1005834    0.3576231   -0.2618044
 36   AU2 s0       -0.0000000    0.0000000   -0.0234344    0.1252496   -0.0881192
 37   AU2 s0        0.0000000   -0.0000000    0.0859008   -0.3917898    0.2209650
 38   AU2 s0       -0.0000000    0.0000000    0.2326146   -0.2776143    0.3688411
 39   AU2 p0        0.0000000   -0.0260480   -0.0000000    0.0000000   -0.0000000
 40   AU2 p+1       0.0000000   -0.0000000    0.0370739   -0.0713178   -0.0885697
 41   AU2 p-1      -0.0260482   -0.0000000    0.0000000    0.0000000    0.0000000
 42   AU2 p0       -0.0000000    0.0085269    0.0000000    0.0000000    0.0000000
 43   AU2 p+1      -0.0000000    0.0000000   -0.0045004    0.0272619    0.0075854
 44   AU2 p-1       0.0085272    0.0000000   -0.0000000   -0.0000000   -0.0000000
 45   AU2 p0       -0.0000000    0.0232683    0.0000000   -0.0000000    0.0000000
 46   AU2 p+1       0.0000000   -0.0000000   -0.1208067    0.0708690    0.3906368
 47   AU2 p-1       0.0232688    0.0000000   -0.0000000   -0.0000000   -0.0000000
 48   AU2 d0       -0.0000000    0.0000000    0.3146715   -0.0553499   -0.0515243
 49   AU2 d+1      -0.0000001    0.6461852    0.0000000    0.0000000   -0.0000000
 50   AU2 d-1       0.0000000   -0.0000000   -0.0000000    0.0000000    0.0000000
 51   AU2 d+2      -0.0000000    0.0000000   -0.5450465    0.0958600    0.0892593
 52   AU2 d-2       0.6461852    0.0000001   -0.0000000    0.0000000   -0.0000000
 53   AU2 d0       -0.0000000    0.0000000    0.0743052   -0.0077521   -0.0217817
 54   AU2 d+1      -0.0000000    0.1646618    0.0000000    0.0000000    0.0000000
 55   AU2 d-1       0.0000000   -0.0000000   -0.0000000    0.0000000   -0.0000000
 56   AU2 d+2      -0.0000000    0.0000000   -0.1287053    0.0134226    0.0377334
 57   AU2 d-2       0.1646617    0.0000000   -0.0000000    0.0000000    0.0000000
 58   AU2 f0        0.0000000   -0.0050547    0.0000000   -0.0000000   -0.0000000
 59   AU2 f+1      -0.0000000    0.0000000    0.0056269   -0.0023646   -0.0012369
 60   AU2 f-1      -0.0020636   -0.0000000    0.0000000    0.0000000   -0.0000000
 61   AU2 f+2      -0.0000000    0.0065256   -0.0000000    0.0000000    0.0000000
 62   AU2 f-2       0.0000000    0.0000000   -0.0000000    0.0000000    0.0000000
 63   AU2 f+3      -0.0000000   -0.0000000   -0.0072643    0.0030530    0.0015968
 64   AU2 f-3       0.0079921    0.0000000   -0.0000000   -0.0000000    0.0000000

            Ene    -0.4182870   -0.4182869   -0.4038435   -0.2913663   -0.0072771
            Sym             A            A            A            A            A
            Occ             1            1            1            1            0


                           21           22           23           24           25

 1    AU1 s0       -0.0000000   -0.0000000    0.0095172    0.0000000   -0.0000000
 2    AU1 s0        0.0000000   -0.0000000   -0.0245377   -0.0000000    0.0000000
 3    AU1 s0       -0.0000000   -0.0000000    0.0255472    0.0000000   -0.0000000
 4    AU1 s0       -0.0000000    0.0000000    0.0613227    0.0000000    0.0000000
 5    AU1 s0        0.0000000   -0.0000000   -0.2134943   -0.0000000   -0.0000000
 6    AU1 s0        0.0000000    0.0000000    0.5092765   -0.0000000    0.0000000
 7    AU1 p0        0.1344051   -0.0000000    0.0000000    0.1022239    0.0000000
 8    AU1 p+1      -0.0000000    0.0000000    0.1471485   -0.0000000   -0.0000000
 9    AU1 p-1       0.0000000    0.1344053   -0.0000000   -0.0000000    0.1022243
 10   AU1 p0       -0.0113001    0.0000000   -0.0000000    0.0208223    0.0000000
 11   AU1 p+1       0.0000000   -0.0000000    0.0005770    0.0000000   -0.0000000
 12   AU1 p-1      -0.0000000   -0.0113002    0.0000000   -0.0000000    0.0208220
 13   AU1 p0       -0.5735650    0.0000000   -0.0000000   -1.0952278   -0.0000000
 14   AU1 p+1      -0.0000000   -0.0000000   -0.7151235   -0.0000000    0.0000000
 15   AU1 p-1      -0.0000000   -0.5735650    0.0000000    0.0000000   -1.0952276
 16   AU1 d0        0.0000000    0.0000000   -0.0026624    0.0000000    0.0000000
 17   AU1 d+1       0.0411139   -0.0000000    0.0000000   -0.1008213   -0.0000000
 18   AU1 d-1      -0.0000000    0.0000000   -0.0000000   -0.0000000    0.0000000
 19   AU1 d+2       0.0000000    0.0000000    0.0046167   -0.0000000    0.0000000
 20   AU1 d-2       0.0000000    0.0411129   -0.0000000    0.0000000   -0.1008216
 21   AU1 d0       -0.0000000   -0.0000000   -0.0036563    0.0000000   -0.0000000
 22   AU1 d+1       0.0260289   -0.0000000   -0.0000000   -0.0566728   -0.0000000
 23   AU1 d-1       0.0000000   -0.0000000   -0.0000000    0.0000000   -0.0000000
 24   AU1 d+2      -0.0000000   -0.0000000    0.0063348   -0.0000000   -0.0000000
 25   AU1 d-2       0.0000000    0.0260289    0.0000000    0.0000000   -0.0566729
 26   AU1 f0        0.0014350   -0.0000000    0.0000000   -0.0034251   -0.0000000
 27   AU1 f+1      -0.0000000    0.0000000    0.0002164   -0.0000000    0.0000000
 28   AU1 f-1       0.0000000    0.0005859   -0.0000000    0.0000000   -0.0013982
 29   AU1 f+2      -0.0018525    0.0000000   -0.0000000    0.0044219    0.0000000
 30   AU1 f-2       0.0000000   -0.0000000    0.0000000   -0.0000000   -0.0000000
 31   AU1 f+3      -0.0000000    0.0000000   -0.0002793    0.0000000    0.0000000
 32   AU1 f-3      -0.0000000   -0.0022689    0.0000000   -0.0000000    0.0054157
 33   AU2 s0       -0.0000000   -0.0000000    0.0095172    0.0000000    0.0000000
 34   AU2 s0        0.0000000    0.0000000   -0.0245377   -0.0000000   -0.0000000
 35   AU2 s0       -0.0000000   -0.0000000    0.0255472    0.0000000    0.0000000
 36   AU2 s0       -0.0000000    0.0000000    0.0613227   -0.0000000   -0.0000000
 37   AU2 s0        0.0000000   -0.0000000   -0.2134943   -0.0000000    0.0000000
 38   AU2 s0       -0.0000000   -0.0000000    0.5092765    0.0000000   -0.0000000
 39   AU2 p0        0.1344051   -0.0000000   -0.0000000   -0.1022239   -0.0000000
 40   AU2 p+1      -0.0000000   -0.0000000   -0.1471485    0.0000000    0.0000000
 41   AU2 p-1       0.0000000    0.1344053   -0.0000000    0.0000000   -0.1022243
 42   AU2 p0       -0.0113001    0.0000000   -0.0000000   -0.0208223   -0.0000000
 43   AU2 p+1      -0.0000000    0.0000000   -0.0005770   -0.0000000   -0.0000000
 44   AU2 p-1      -0.0000000   -0.0113002   -0.0000000    0.0000000   -0.0208220
 45   AU2 p0       -0.5735650    0.0000000    0.0000000    1.0952278    0.0000000
 46   AU2 p+1       0.0000000    0.0000000    0.7151235   -0.0000000    0.0000000
 47   AU2 p-1      -0.0000000   -0.5735650    0.0000000   -0.0000000    1.0952276
 48   AU2 d0        0.0000000    0.0000000   -0.0026624   -0.0000000    0.0000000
 49   AU2 d+1      -0.0411139    0.0000000   -0.0000000   -0.1008213   -0.0000000
 50   AU2 d-1      -0.0000000    0.0000000   -0.0000000    0.0000000    0.0000000
 51   AU2 d+2       0.0000000    0.0000000    0.0046167    0.0000000   -0.0000000
 52   AU2 d-2      -0.0000000   -0.0411129    0.0000000    0.0000000   -0.1008216
 53   AU2 d0       -0.0000000   -0.0000000   -0.0036563   -0.0000000    0.0000000
 54   AU2 d+1      -0.0260289    0.0000000    0.0000000   -0.0566728   -0.0000000
 55   AU2 d-1       0.0000000   -0.0000000    0.0000000   -0.0000000   -0.0000000
 56   AU2 d+2      -0.0000000   -0.0000000    0.0063348    0.0000000    0.0000000
 57   AU2 d-2      -0.0000000   -0.0260289   -0.0000000    0.0000000   -0.0566729
 58   AU2 f0        0.0014350   -0.0000000   -0.0000000    0.0034251    0.0000000
 59   AU2 f+1       0.0000000   -0.0000000   -0.0002164   -0.0000000   -0.0000000
 60   AU2 f-1       0.0000000    0.0005859   -0.0000000   -0.0000000    0.0013982
 61   AU2 f+2      -0.0018525    0.0000000   -0.0000000   -0.0044219   -0.0000000
 62   AU2 f-2       0.0000000   -0.0000000    0.0000000    0.0000000   -0.0000000
 63   AU2 f+3      -0.0000000   -0.0000000    0.0002793   -0.0000000   -0.0000000
 64   AU2 f-3      -0.0000000   -0.0022689    0.0000000    0.0000000   -0.0054157

            Ene     0.0683073    0.0683078    0.0925120    0.1415077    0.1415079
            Sym             A            A            A            A            A
            Occ             0            0            0            0            0


                           26           27           28           29           30

 1    AU1 s0        0.0436071    0.0615349    0.0733985    0.0000000   -0.0000002
 2    AU1 s0       -0.1118296   -0.1584020   -0.1890261   -0.0000000    0.0000005
 3    AU1 s0        0.1498019    0.1562954    0.1834909    0.0000000   -0.0000008
 4    AU1 s0        0.1445933    0.4269887    0.5280367    0.0000000    0.0000000
 5    AU1 s0       -0.1192220   -1.6756426   -2.0607647   -0.0000000   -0.0000001
 6    AU1 s0       -4.9679549    1.0919669    4.2798564   -0.0000000    0.0000007
 7    AU1 p0       -0.0000000    0.0000000    0.0000000    0.0000000    0.0000000
 8    AU1 p+1      -0.0130437   -0.0212654   -0.0649270    0.0000000   -0.0000014
 9    AU1 p-1       0.0000000   -0.0000000   -0.0000000    0.0000000   -0.0000000
 10   AU1 p0       -0.0000000   -0.0000000   -0.0000000   -0.0000000   -0.0000000
 11   AU1 p+1       0.0117168   -0.0460565    0.0430351   -0.0000000    0.0000017
 12   AU1 p-1       0.0000000    0.0000000    0.0000000   -0.0000000    0.0000000
 13   AU1 p0        0.0000000    0.0000000    0.0000000    0.0000000    0.0000000
 14   AU1 p+1      -3.4286539    0.3375037    1.6191637    0.0000000   -0.0000007
 15   AU1 p-1      -0.0000000   -0.0000000   -0.0000000    0.0000000   -0.0000000
 16   AU1 d0        0.0763992   -0.0501002    0.0004386   -0.0000000    0.4128038
 17   AU1 d+1       0.0000000    0.0000000   -0.0000000    0.0000000    0.0000000
 18   AU1 d-1      -0.0000000    0.0000000   -0.0000000    0.4766640    0.0000000
 19   AU1 d+2      -0.1323304    0.0867736   -0.0007633   -0.0000000    0.2383309
 20   AU1 d-2      -0.0000000    0.0000000    0.0000000    0.0000000   -0.0000000
 21   AU1 d0        0.1606077   -0.0213708    0.0089202    0.0000001   -0.6163765
 22   AU1 d+1       0.0000000    0.0000000    0.0000000   -0.0000000   -0.0000000
 23   AU1 d-1       0.0000000    0.0000000    0.0000000   -0.7117292   -0.0000001
 24   AU1 d+2      -0.2781835    0.0370136   -0.0154530    0.0000000   -0.3558630
 25   AU1 d-2       0.0000000   -0.0000000   -0.0000000   -0.0000000    0.0000000
 26   AU1 f0        0.0000000    0.0000000   -0.0000000    0.0000000    0.0000000
 27   AU1 f+1       0.0007043    0.0059347   -0.0038633    0.0000000   -0.0104105
 28   AU1 f-1       0.0000000    0.0000000   -0.0000000    0.0000000   -0.0000000
 29   AU1 f+2      -0.0000000   -0.0000000    0.0000000   -0.0000000   -0.0000000
 30   AU1 f-2       0.0000000   -0.0000000    0.0000000   -0.0131683   -0.0000000
 31   AU1 f+3      -0.0009091   -0.0076618    0.0049875    0.0000000   -0.0080638
 32   AU1 f-3       0.0000000   -0.0000000    0.0000000   -0.0000000    0.0000000
 33   AU2 s0       -0.0436071    0.0615349   -0.0733985    0.0000000   -0.0000002
 34   AU2 s0        0.1118296   -0.1584020    0.1890261   -0.0000000    0.0000005
 35   AU2 s0       -0.1498019    0.1562954   -0.1834909    0.0000000   -0.0000008
 36   AU2 s0       -0.1445933    0.4269887   -0.5280367   -0.0000000    0.0000000
 37   AU2 s0        0.1192220   -1.6756426    2.0607647    0.0000000   -0.0000001
 38   AU2 s0        4.9679549    1.0919669   -4.2798564   -0.0000000    0.0000007
 39   AU2 p0        0.0000000    0.0000000   -0.0000000    0.0000000    0.0000000
 40   AU2 p+1      -0.0130437    0.0212654   -0.0649270   -0.0000000    0.0000014
 41   AU2 p-1      -0.0000000   -0.0000000    0.0000000    0.0000000   -0.0000000
 42   AU2 p0        0.0000000   -0.0000000    0.0000000   -0.0000000   -0.0000000
 43   AU2 p+1       0.0117168    0.0460565    0.0430351    0.0000000   -0.0000017
 44   AU2 p-1      -0.0000000    0.0000000   -0.0000000   -0.0000000    0.0000000
 45   AU2 p0       -0.0000000   -0.0000000   -0.0000000   -0.0000000    0.0000000
 46   AU2 p+1      -3.4286539   -0.3375037    1.6191637   -0.0000000    0.0000007
 47   AU2 p-1       0.0000000    0.0000000    0.0000000   -0.0000000    0.0000000
 48   AU2 d0       -0.0763992   -0.0501002   -0.0004386   -0.0000000    0.4128038
 49   AU2 d+1       0.0000000    0.0000000   -0.0000000   -0.0000000   -0.0000000
 50   AU2 d-1      -0.0000000   -0.0000000    0.0000000    0.4766640    0.0000000
 51   AU2 d+2       0.1323304    0.0867736    0.0007633   -0.0000000    0.2383309
 52   AU2 d-2      -0.0000000   -0.0000000    0.0000000   -0.0000000    0.0000000
 53   AU2 d0       -0.1606077   -0.0213708   -0.0089202    0.0000001   -0.6163765
 54   AU2 d+1      -0.0000000   -0.0000000    0.0000000    0.0000000    0.0000000
 55   AU2 d-1       0.0000000    0.0000000    0.0000000   -0.7117292   -0.0000001
 56   AU2 d+2       0.2781835    0.0370136    0.0154530    0.0000000   -0.3558630
 57   AU2 d-2       0.0000000    0.0000000   -0.0000000    0.0000000   -0.0000000
 58   AU2 f0       -0.0000000   -0.0000000    0.0000000    0.0000000    0.0000000
 59   AU2 f+1       0.0007043   -0.0059347   -0.0038633   -0.0000000    0.0104105
 60   AU2 f-1      -0.0000000    0.0000000   -0.0000000   -0.0000000    0.0000000
 61   AU2 f+2       0.0000000    0.0000000   -0.0000000   -0.0000000   -0.0000000
 62   AU2 f-2       0.0000000   -0.0000000    0.0000000    0.0131683    0.0000000
 63   AU2 f+3      -0.0009091    0.0076618    0.0049875   -0.0000000    0.0080638
 64   AU2 f-3       0.0000000    0.0000000   -0.0000000   -0.0000000    0.0000000

            Ene     0.2107422    0.2598004    0.3221168    0.5941451    0.5941451
            Sym             A            A            A            A            A
            Occ             0            0            0            0            0


                           31           32           33           34           35

 1    AU1 s0       -0.0000000    0.0000000    0.0337866   -0.0000000   -0.0000008
 2    AU1 s0        0.0000000   -0.0000000   -0.0865265    0.0000000    0.0000020
 3    AU1 s0       -0.0000000    0.0000000    0.1980333   -0.0000000   -0.0000040
 4    AU1 s0       -0.0000000   -0.0000000   -0.1749591    0.0000000    0.0000021
 5    AU1 s0        0.0000000    0.0000000   -0.0261319    0.0000000    0.0000030
 6    AU1 s0        0.0000000    0.0000000    3.9975098   -0.0000000   -0.0000624
 7    AU1 p0        0.1249698    0.0000000   -0.0000000    0.0000000    0.0000000
 8    AU1 p+1       0.0000000    0.0000000    0.1665047   -0.0000000   -0.0000026
 9    AU1 p-1      -0.0000000    0.1249695   -0.0000000   -0.0000000    0.0000000
 10   AU1 p0       -0.1415698   -0.0000000    0.0000000   -0.0000000   -0.0000000
 11   AU1 p+1       0.0000000    0.0000000   -0.0016554    0.0000000    0.0000003
 12   AU1 p-1       0.0000000   -0.1415695    0.0000000    0.0000000   -0.0000000
 13   AU1 p0        0.1260550    0.0000000    0.0000000   -0.0000000   -0.0000000
 14   AU1 p+1       0.0000000    0.0000000    2.5308611   -0.0000000   -0.0000389
 15   AU1 p-1      -0.0000000    0.1260548   -0.0000000   -0.0000000    0.0000000
 16   AU1 d0       -0.0000000    0.0000000    0.2227163    0.0000000    0.4136251
 17   AU1 d+1       0.5034676    0.0000000   -0.0000000    0.0000000    0.0000000
 18   AU1 d-1      -0.0000000   -0.0000000    0.0000000    0.4776174   -0.0000000
 19   AU1 d+2      -0.0000000   -0.0000000   -0.3857409    0.0000000    0.2388152
 20   AU1 d-2      -0.0000000    0.5034674   -0.0000000    0.0000000   -0.0000000
 21   AU1 d0        0.0000000   -0.0000000   -0.6083476   -0.0000000   -0.7356114
 22   AU1 d+1      -0.6469297   -0.0000000    0.0000000   -0.0000000   -0.0000000
 23   AU1 d-1       0.0000000    0.0000000   -0.0000000   -0.8494218    0.0000000
 24   AU1 d+2       0.0000000    0.0000000    1.0536616   -0.0000000   -0.4247272
 25   AU1 d-2       0.0000000   -0.6469298    0.0000000   -0.0000000    0.0000000
 26   AU1 f0        0.0089804    0.0000000    0.0000000    0.0000000    0.0000000
 27   AU1 f+1       0.0000000   -0.0000000   -0.0132727    0.0000000    0.0141671
 28   AU1 f-1      -0.0000000    0.0036662   -0.0000000    0.0000000   -0.0000000
 29   AU1 f+2      -0.0115939   -0.0000000    0.0000000    0.0000000    0.0000000
 30   AU1 f-2      -0.0000000    0.0000000    0.0000000    0.0179198   -0.0000000
 31   AU1 f+3       0.0000000    0.0000000    0.0171357    0.0000000    0.0109733
 32   AU1 f-3       0.0000000   -0.0141995    0.0000000   -0.0000000   -0.0000000
 33   AU2 s0        0.0000000   -0.0000000   -0.0337866    0.0000000    0.0000008
 34   AU2 s0       -0.0000000    0.0000000    0.0865265   -0.0000000   -0.0000020
 35   AU2 s0        0.0000000   -0.0000000   -0.1980333    0.0000000    0.0000040
 36   AU2 s0        0.0000000    0.0000000    0.1749591   -0.0000000   -0.0000021
 37   AU2 s0       -0.0000000    0.0000000    0.0261319   -0.0000000   -0.0000030
 38   AU2 s0       -0.0000000   -0.0000000   -3.9975098    0.0000000    0.0000624
 39   AU2 p0        0.1249698    0.0000000   -0.0000000    0.0000000    0.0000000
 40   AU2 p+1      -0.0000000    0.0000000    0.1665047   -0.0000000   -0.0000026
 41   AU2 p-1      -0.0000000    0.1249695   -0.0000000    0.0000000   -0.0000000
 42   AU2 p0       -0.1415698   -0.0000000    0.0000000   -0.0000000   -0.0000000
 43   AU2 p+1       0.0000000    0.0000000   -0.0016554    0.0000000    0.0000003
 44   AU2 p-1       0.0000000   -0.1415695    0.0000000   -0.0000000    0.0000000
 45   AU2 p0        0.1260550    0.0000000   -0.0000000    0.0000000    0.0000000
 46   AU2 p+1       0.0000000    0.0000000    2.5308611   -0.0000000   -0.0000389
 47   AU2 p-1      -0.0000000    0.1260548   -0.0000000    0.0000000   -0.0000000
 48   AU2 d0       -0.0000000   -0.0000000   -0.2227163   -0.0000000   -0.4136251
 49   AU2 d+1      -0.5034676   -0.0000000    0.0000000   -0.0000000    0.0000000
 50   AU2 d-1      -0.0000000   -0.0000000   -0.0000000   -0.4776174    0.0000000
 51   AU2 d+2      -0.0000000    0.0000000    0.3857409   -0.0000000   -0.2388152
 52   AU2 d-2       0.0000000   -0.5034674    0.0000000   -0.0000000    0.0000000
 53   AU2 d0        0.0000000    0.0000000    0.6083476    0.0000000    0.7356114
 54   AU2 d+1       0.6469297    0.0000000   -0.0000000   -0.0000000   -0.0000000
 55   AU2 d-1       0.0000000    0.0000000    0.0000000    0.8494218   -0.0000000
 56   AU2 d+2      -0.0000000   -0.0000000   -1.0536616    0.0000000    0.4247272
 57   AU2 d-2      -0.0000000    0.6469298   -0.0000000   -0.0000000   -0.0000000
 58   AU2 f0        0.0089804    0.0000000    0.0000000    0.0000000    0.0000000
 59   AU2 f+1      -0.0000000   -0.0000000   -0.0132727    0.0000000    0.0141671
 60   AU2 f-1      -0.0000000    0.0036662   -0.0000000    0.0000000   -0.0000000
 61   AU2 f+2      -0.0115939   -0.0000000    0.0000000   -0.0000000   -0.0000000
 62   AU2 f-2      -0.0000000   -0.0000000    0.0000000    0.0179198   -0.0000000
 63   AU2 f+3      -0.0000000   -0.0000000    0.0171357    0.0000000    0.0109733
 64   AU2 f-3       0.0000000   -0.0141995    0.0000000   -0.0000000    0.0000000

            Ene     0.6322605    0.6322612    0.6709864    0.6929832    0.6929833
            Sym             A            A            A            A            A
            Occ             0            0            0            0            0


                           36           37           38           39           40

 1    AU1 s0       -0.0000000   -0.0000000    0.0012443    0.0164585   -0.0000000
 2    AU1 s0        0.0000000    0.0000000   -0.0034015   -0.0424221    0.0000000
 3    AU1 s0       -0.0000000   -0.0000000   -0.0437807    0.0975079   -0.0000000
 4    AU1 s0       -0.0000000    0.0000000    0.1906459   -0.1083492    0.0000000
 5    AU1 s0        0.0000000    0.0000000   -0.6068319    0.5702722    0.0000000
 6    AU1 s0       -0.0000000   -0.0000000    0.3274474   -0.2022235    0.0000000
 7    AU1 p0        0.1752836    0.0000000    0.0000000   -0.0000000    0.7167281
 8    AU1 p+1       0.0000000    0.0000000   -0.4453053   -0.5373408   -0.0000000
 9    AU1 p-1      -0.0000000    0.1752842    0.0000000    0.0000000   -0.0000000
 10   AU1 p0       -0.2318906   -0.0000000   -0.0000000    0.0000000   -1.0659577
 11   AU1 p+1      -0.0000000   -0.0000000    0.4870098    0.9899159    0.0000000
 12   AU1 p-1       0.0000000   -0.2318912   -0.0000000   -0.0000000    0.0000000
 13   AU1 p0        0.7045426    0.0000000    0.0000000   -0.0000000    0.2913820
 14   AU1 p+1      -0.0000000   -0.0000000   -0.0743490   -0.6082505    0.0000000
 15   AU1 p-1      -0.0000000    0.7045429    0.0000000    0.0000000   -0.0000000
 16   AU1 d0       -0.0000000   -0.0000000    0.2214107   -0.1677153   -0.0000000
 17   AU1 d+1      -0.4521061   -0.0000000   -0.0000000    0.0000000   -0.1013546
 18   AU1 d-1       0.0000000    0.0000000   -0.0000000   -0.0000000    0.0000000
 19   AU1 d+2       0.0000000    0.0000000   -0.3834997    0.2904902    0.0000000
 20   AU1 d-2       0.0000000   -0.4521061   -0.0000000   -0.0000000    0.0000000
 21   AU1 d0        0.0000000    0.0000000   -0.3125790    0.3721628    0.0000000
 22   AU1 d+1       1.1531909    0.0000000    0.0000000   -0.0000000    0.1665913
 23   AU1 d-1      -0.0000000   -0.0000000    0.0000000    0.0000000   -0.0000000
 24   AU1 d+2      -0.0000000   -0.0000000    0.5414065   -0.6446049   -0.0000000
 25   AU1 d-2      -0.0000000    1.1531907    0.0000000    0.0000000   -0.0000000
 26   AU1 f0        0.0235215    0.0000000    0.0000000   -0.0000000    0.0255714
 27   AU1 f+1      -0.0000000   -0.0000000    0.0016712   -0.0742463   -0.0000000
 28   AU1 f-1      -0.0000000    0.0096027    0.0000000   -0.0000000   -0.0000000
 29   AU1 f+2      -0.0303659   -0.0000000   -0.0000000    0.0000000   -0.0330124
 30   AU1 f-2       0.0000000    0.0000000    0.0000000    0.0000000   -0.0000000
 31   AU1 f+3       0.0000000    0.0000000   -0.0021573    0.0958512    0.0000000
 32   AU1 f-3       0.0000000   -0.0371905   -0.0000000   -0.0000000    0.0000000
 33   AU2 s0        0.0000000   -0.0000000    0.0012443    0.0164585    0.0000000
 34   AU2 s0       -0.0000000   -0.0000000   -0.0034015   -0.0424221   -0.0000000
 35   AU2 s0        0.0000000    0.0000000   -0.0437807    0.0975079    0.0000000
 36   AU2 s0       -0.0000000   -0.0000000    0.1906459   -0.1083492   -0.0000000
 37   AU2 s0        0.0000000    0.0000000   -0.6068319    0.5702722    0.0000000
 38   AU2 s0        0.0000000    0.0000000    0.3274474   -0.2022235   -0.0000000
 39   AU2 p0       -0.1752836   -0.0000000   -0.0000000   -0.0000000    0.7167281
 40   AU2 p+1      -0.0000000   -0.0000000    0.4453053    0.5373408    0.0000000
 41   AU2 p-1       0.0000000   -0.1752842   -0.0000000    0.0000000   -0.0000000
 42   AU2 p0        0.2318906    0.0000000    0.0000000    0.0000000   -1.0659577
 43   AU2 p+1       0.0000000    0.0000000   -0.4870098   -0.9899159   -0.0000000
 44   AU2 p-1      -0.0000000    0.2318912    0.0000000   -0.0000000    0.0000000
 45   AU2 p0       -0.7045426   -0.0000000   -0.0000000   -0.0000000    0.2913820
 46   AU2 p+1      -0.0000000   -0.0000000    0.0743490    0.6082505    0.0000000
 47   AU2 p-1       0.0000000   -0.7045429   -0.0000000    0.0000000   -0.0000000
 48   AU2 d0       -0.0000000    0.0000000    0.2214107   -0.1677153   -0.0000000
 49   AU2 d+1      -0.4521061   -0.0000000   -0.0000000   -0.0000000    0.1013546
 50   AU2 d-1      -0.0000000   -0.0000000   -0.0000000    0.0000000   -0.0000000
 51   AU2 d+2       0.0000000    0.0000000   -0.3834997    0.2904902    0.0000000
 52   AU2 d-2       0.0000000   -0.4521061   -0.0000000    0.0000000   -0.0000000
 53   AU2 d0        0.0000000   -0.0000000   -0.3125790    0.3721628    0.0000000
 54   AU2 d+1       1.1531909    0.0000000    0.0000000   -0.0000000   -0.1665913
 55   AU2 d-1       0.0000000    0.0000000    0.0000000   -0.0000000   -0.0000000
 56   AU2 d+2      -0.0000000   -0.0000000    0.5414065   -0.6446049   -0.0000000
 57   AU2 d-2      -0.0000000    1.1531907    0.0000000   -0.0000000    0.0000000
 58   AU2 f0       -0.0235215   -0.0000000   -0.0000000    0.0000000    0.0255714
 59   AU2 f+1       0.0000000   -0.0000000   -0.0016712    0.0742463    0.0000000
 60   AU2 f-1       0.0000000   -0.0096027   -0.0000000    0.0000000   -0.0000000
 61   AU2 f+2       0.0303659    0.0000000    0.0000000   -0.0000000   -0.0330124
 62   AU2 f-2       0.0000000   -0.0000000    0.0000000   -0.0000000   -0.0000000
 63   AU2 f+3      -0.0000000   -0.0000000    0.0021573   -0.0958512   -0.0000000
 64   AU2 f-3      -0.0000000    0.0371905    0.0000000   -0.0000000    0.0000000

            Ene     0.7728902    0.7728907    0.7986235    0.9766624    1.0282860
            Sym             A            A            A            A            A
            Occ             0            0            0            0            0


                           41           42           43           44           45

 1    AU1 s0       -0.0000000   -0.0000000   -0.0000000    0.0625023    0.0000000
 2    AU1 s0        0.0000000    0.0000000   -0.0000000   -0.1618279   -0.0000000
 3    AU1 s0       -0.0000000   -0.0000000    0.0000000    0.3706511    0.0000000
 4    AU1 s0        0.0000000   -0.0000000   -0.0000000   -0.2004112   -0.0000000
 5    AU1 s0       -0.0000000    0.0000000   -0.0000000   -0.2073122    0.0000000
 6    AU1 s0        0.0000000   -0.0000000   -0.0000000   -1.6569533   -0.0000000
 7    AU1 p0        0.0000000    0.7196072   -0.0000000   -0.0000000    0.0591282
 8    AU1 p+1       0.0000000    0.0000000    0.0000000    0.6970964   -0.0000000
 9    AU1 p-1       0.7167283    0.0000000    0.7196072    0.0000000   -0.0000000
 10   AU1 p0       -0.0000000   -1.0606459    0.0000000    0.0000000   -0.0874199
 11   AU1 p+1      -0.0000000   -0.0000000   -0.0000000   -1.1775355    0.0000000
 12   AU1 p-1      -1.0659577   -0.0000000   -1.0606458   -0.0000000    0.0000000
 13   AU1 p0        0.0000000    0.2854002   -0.0000000   -0.0000000    0.0253526
 14   AU1 p+1       0.0000000   -0.0000000   -0.0000000   -0.9345720   -0.0000000
 15   AU1 p-1       0.2913821    0.0000000    0.2854000    0.0000000   -0.0000000
 16   AU1 d0        0.0000000   -0.0000000    0.0000000   -0.0521606   -0.0000000
 17   AU1 d+1      -0.0000000    0.1215870   -0.0000000    0.0000000    0.0127131
 18   AU1 d-1      -0.0000000   -0.0000000    0.0000000    0.0000000   -0.0000000
 19   AU1 d+2      -0.0000000    0.0000000   -0.0000000    0.0903453    0.0000000
 20   AU1 d-2      -0.1013547    0.0000000    0.1215872    0.0000000   -0.0000000
 21   AU1 d0       -0.0000000    0.0000000   -0.0000000    0.3360080    0.0000000
 22   AU1 d+1       0.0000000   -0.3495230    0.0000000    0.0000000   -0.0456766
 23   AU1 d-1       0.0000000    0.0000000   -0.0000000   -0.0000000    0.0000000
 24   AU1 d+2       0.0000000   -0.0000000    0.0000000   -0.5819834   -0.0000000
 25   AU1 d-2       0.1665910   -0.0000000   -0.3495238    0.0000000    0.0000000
 26   AU1 f0        0.0000000   -0.0409550    0.0000000    0.0000000   -0.4279521
 27   AU1 f+1       0.0000000   -0.0000000    0.0000000   -0.1801892    0.0000000
 28   AU1 f-1       0.0104396   -0.0000000   -0.0167198    0.0000000    0.0000000
 29   AU1 f+2      -0.0000000    0.0528728   -0.0000000   -0.0000000    0.5524798
 30   AU1 f-2      -0.0000000   -0.0000000    0.0000000    0.0000000   -0.0000000
 31   AU1 f+3      -0.0000000    0.0000000   -0.0000000    0.2326225   -0.0000000
 32   AU1 f-3      -0.0404318    0.0000000    0.0647556   -0.0000000   -0.0000000
 33   AU2 s0        0.0000000   -0.0000000   -0.0000000   -0.0625023    0.0000000
 34   AU2 s0       -0.0000000    0.0000000    0.0000000    0.1618279   -0.0000000
 35   AU2 s0        0.0000000   -0.0000000   -0.0000000   -0.3706511    0.0000000
 36   AU2 s0        0.0000000    0.0000000    0.0000000    0.2004112   -0.0000000
 37   AU2 s0       -0.0000000   -0.0000000   -0.0000000    0.2073122    0.0000000
 38   AU2 s0        0.0000000    0.0000000    0.0000000    1.6569533   -0.0000000
 39   AU2 p0        0.0000000   -0.7196072    0.0000000    0.0000000    0.0591282
 40   AU2 p+1      -0.0000000    0.0000000    0.0000000    0.6970964    0.0000000
 41   AU2 p-1       0.7167283   -0.0000000   -0.7196072    0.0000000   -0.0000000
 42   AU2 p0       -0.0000000    1.0606459   -0.0000000   -0.0000000   -0.0874199
 43   AU2 p+1       0.0000000   -0.0000000    0.0000000   -1.1775355   -0.0000000
 44   AU2 p-1      -1.0659577    0.0000000    1.0606458   -0.0000000    0.0000000
 45   AU2 p0        0.0000000   -0.2854002    0.0000000    0.0000000    0.0253526
 46   AU2 p+1      -0.0000000   -0.0000000   -0.0000000   -0.9345720    0.0000000
 47   AU2 p-1       0.2913821   -0.0000000   -0.2854000   -0.0000000   -0.0000000
 48   AU2 d0        0.0000000    0.0000000    0.0000000    0.0521606   -0.0000000
 49   AU2 d+1       0.0000000    0.1215870   -0.0000000   -0.0000000   -0.0127131
 50   AU2 d-1       0.0000000    0.0000000   -0.0000000   -0.0000000    0.0000000
 51   AU2 d+2      -0.0000000    0.0000000   -0.0000000   -0.0903453    0.0000000
 52   AU2 d-2       0.1013547    0.0000000    0.1215872   -0.0000000    0.0000000
 53   AU2 d0       -0.0000000   -0.0000000   -0.0000000   -0.3360080    0.0000000
 54   AU2 d+1      -0.0000000   -0.3495230    0.0000000    0.0000000    0.0456766
 55   AU2 d-1      -0.0000000   -0.0000000    0.0000000    0.0000000   -0.0000000
 56   AU2 d+2       0.0000000    0.0000000    0.0000000    0.5819834   -0.0000000
 57   AU2 d-2      -0.1665910   -0.0000000   -0.3495238    0.0000000   -0.0000000
 58   AU2 f0        0.0000000    0.0409550   -0.0000000   -0.0000000   -0.4279521
 59   AU2 f+1      -0.0000000   -0.0000000   -0.0000000   -0.1801892   -0.0000000
 60   AU2 f-1       0.0104396    0.0000000    0.0167198   -0.0000000    0.0000000
 61   AU2 f+2      -0.0000000   -0.0528728    0.0000000    0.0000000    0.5524798
 62   AU2 f-2       0.0000000   -0.0000000   -0.0000000    0.0000000    0.0000000
 63   AU2 f+3      -0.0000000   -0.0000000   -0.0000000    0.2326225    0.0000000
 64   AU2 f-3      -0.0404318   -0.0000000   -0.0647556    0.0000000   -0.0000000

            Ene     1.0282863    1.0976840    1.0976843    1.5147704    1.7727490
            Sym             A            A            A            A            A
            Occ             0            0            0            0            0


                           46           47           48           49           50

 1    AU1 s0       -0.0000000    0.0334473    0.0000000   -0.0000003    0.0000000
 2    AU1 s0        0.0000000   -0.0863105   -0.0000000    0.0000007   -0.0000000
 3    AU1 s0       -0.0000000    0.2562708    0.0000000   -0.0000023    0.0000000
 4    AU1 s0        0.0000000   -0.3206073   -0.0000000    0.0000030   -0.0000000
 5    AU1 s0       -0.0000000    0.3679478    0.0000000   -0.0000034    0.0000000
 6    AU1 s0        0.0000000   -0.1499075   -0.0000000    0.0000013   -0.0000000
 7    AU1 p0        0.0000000   -0.0000000    0.0000000    0.0000000    0.0000001
 8    AU1 p+1      -0.0000000   -0.1417767   -0.0000000    0.0000012   -0.0000000
 9    AU1 p-1       0.0591280    0.0000000   -0.0000000   -0.0000000   -0.0000000
 10   AU1 p0       -0.0000000    0.0000000   -0.0000000   -0.0000000   -0.0000002
 11   AU1 p+1       0.0000000    0.2697411    0.0000000   -0.0000022    0.0000000
 12   AU1 p-1      -0.0874198   -0.0000000    0.0000000    0.0000000    0.0000000
 13   AU1 p0        0.0000000   -0.0000000    0.0000000    0.0000000    0.0000001
 14   AU1 p+1      -0.0000000   -0.1816539   -0.0000000    0.0000015   -0.0000000
 15   AU1 p-1       0.0253526    0.0000000   -0.0000000   -0.0000000   -0.0000000
 16   AU1 d0       -0.0000000   -0.0481005   -0.0000000    0.0162678   -0.0000000
 17   AU1 d+1       0.0000000   -0.0000000    0.0000000   -0.0000000    0.0000001
 18   AU1 d-1      -0.0000000    0.0000000    0.0187840    0.0000000   -0.0000000
 19   AU1 d+2       0.0000000    0.0833129   -0.0000000    0.0093913   -0.0000000
 20   AU1 d-2       0.0127131    0.0000000   -0.0000000   -0.0000000   -0.0000000
 21   AU1 d0        0.0000000    0.0846609    0.0000000   -0.0303914    0.0000000
 22   AU1 d+1      -0.0000000    0.0000000    0.0000000    0.0000000   -0.0000003
 23   AU1 d-1       0.0000000   -0.0000000   -0.0350923   -0.0000000   -0.0000000
 24   AU1 d+2       0.0000000   -0.1466377    0.0000000   -0.0175451   -0.0000000
 25   AU1 d-2      -0.0456766    0.0000000    0.0000000   -0.0000000    0.0000000
 26   AU1 f0       -0.0000000    0.0000000   -0.0000000   -0.0000000    0.5589297
 27   AU1 f+1      -0.0000000    0.4176167   -0.0000002    0.5578766   -0.0000000
 28   AU1 f-1      -0.1747123    0.0000000   -0.0000000    0.0000000   -0.0001227
 29   AU1 f+2       0.0000000   -0.0000000   -0.0000000    0.0000000    0.4329482
 30   AU1 f-2       0.0000000    0.0000000    0.7056690    0.0000002   -0.0000000
 31   AU1 f+3      -0.0000000   -0.5391305   -0.0000002    0.4321372   -0.0000000
 32   AU1 f-3       0.6766481    0.0000000    0.0000000    0.0000000   -0.0000317
 33   AU2 s0       -0.0000000    0.0334473    0.0000000   -0.0000003   -0.0000000
 34   AU2 s0        0.0000000   -0.0863105   -0.0000000    0.0000007    0.0000000
 35   AU2 s0       -0.0000000    0.2562708    0.0000000   -0.0000023   -0.0000000
 36   AU2 s0        0.0000000   -0.3206073   -0.0000000    0.0000030    0.0000000
 37   AU2 s0       -0.0000000    0.3679478    0.0000000   -0.0000034   -0.0000000
 38   AU2 s0        0.0000000   -0.1499075   -0.0000000    0.0000013    0.0000000
 39   AU2 p0        0.0000000   -0.0000000    0.0000000    0.0000000    0.0000001
 40   AU2 p+1      -0.0000000    0.1417767    0.0000000   -0.0000012    0.0000000
 41   AU2 p-1       0.0591280    0.0000000    0.0000000    0.0000000   -0.0000000
 42   AU2 p0       -0.0000000    0.0000000   -0.0000000   -0.0000000   -0.0000002
 43   AU2 p+1       0.0000000   -0.2697411   -0.0000000    0.0000022   -0.0000000
 44   AU2 p-1      -0.0874198   -0.0000000   -0.0000000   -0.0000000    0.0000000
 45   AU2 p0        0.0000000   -0.0000000    0.0000000    0.0000000    0.0000001
 46   AU2 p+1      -0.0000000    0.1816539    0.0000000   -0.0000015   -0.0000000
 47   AU2 p-1       0.0253526   -0.0000000    0.0000000    0.0000000   -0.0000000
 48   AU2 d0       -0.0000000   -0.0481005   -0.0000000    0.0162678   -0.0000000
 49   AU2 d+1      -0.0000000    0.0000000   -0.0000000   -0.0000000   -0.0000001
 50   AU2 d-1      -0.0000000   -0.0000000    0.0187840    0.0000000    0.0000000
 51   AU2 d+2      -0.0000000    0.0833129   -0.0000000    0.0093913   -0.0000000
 52   AU2 d-2      -0.0127131   -0.0000000    0.0000000    0.0000000    0.0000000
 53   AU2 d0       -0.0000000    0.0846609    0.0000000   -0.0303914    0.0000000
 54   AU2 d+1       0.0000000   -0.0000000    0.0000000    0.0000000    0.0000003
 55   AU2 d-1       0.0000000    0.0000000   -0.0350923   -0.0000000   -0.0000000
 56   AU2 d+2       0.0000000   -0.1466377    0.0000000   -0.0175451    0.0000000
 57   AU2 d-2       0.0456766    0.0000000   -0.0000000   -0.0000000   -0.0000000
 58   AU2 f0       -0.0000000    0.0000000    0.0000000    0.0000000    0.5589297
 59   AU2 f+1       0.0000000   -0.4176167    0.0000002   -0.5578766    0.0000000
 60   AU2 f-1      -0.1747123   -0.0000000    0.0000000    0.0000000   -0.0001227
 61   AU2 f+2       0.0000000   -0.0000000    0.0000000    0.0000000    0.4329482
 62   AU2 f-2       0.0000000   -0.0000000   -0.7056690   -0.0000002   -0.0000000
 63   AU2 f+3       0.0000000    0.5391305    0.0000002   -0.4321372    0.0000000
 64   AU2 f-3       0.6766481   -0.0000000    0.0000000    0.0000000   -0.0000317

            Ene     1.7727498    1.7809324    1.8345268    1.8345269    1.8598612
            Sym             A            A            A            A            A
            Occ             0            0            0            0            0


                           51           52           53           54           55

 1    AU1 s0       -0.0000000   -0.0000000   -0.0000000    0.0000000   -0.0000003
 2    AU1 s0        0.0000000    0.0000000    0.0000000   -0.0000000    0.0000008
 3    AU1 s0       -0.0000000   -0.0000000   -0.0000000    0.0000000   -0.0000021
 4    AU1 s0        0.0000000    0.0000000    0.0000000   -0.0000000    0.0000018
 5    AU1 s0        0.0000000   -0.0000000   -0.0000000    0.0000000   -0.0000001
 6    AU1 s0        0.0000000    0.0000000    0.0000000   -0.0000000    0.0000041
 7    AU1 p0        0.0000000    0.0000001    0.0000000   -0.0000000   -0.0000000
 8    AU1 p+1      -0.0000000    0.0000000    0.0000000    0.0000000   -0.0000011
 9    AU1 p-1       0.0000001   -0.0000000    0.0000001   -0.0000000   -0.0000000
 10   AU1 p0       -0.0000000   -0.0000002   -0.0000000    0.0000000    0.0000000
 11   AU1 p+1       0.0000000   -0.0000000   -0.0000000   -0.0000000    0.0000019
 12   AU1 p-1      -0.0000002    0.0000000   -0.0000002    0.0000000    0.0000000
 13   AU1 p0        0.0000000   -0.0000003   -0.0000000    0.0000000    0.0000000
 14   AU1 p+1      -0.0000000    0.0000000    0.0000000   -0.0000000    0.0000022
 15   AU1 p-1       0.0000001    0.0000000   -0.0000003   -0.0000000   -0.0000000
 16   AU1 d0       -0.0000000    0.0000000   -0.0000000   -0.0000000    0.0166035
 17   AU1 d+1       0.0000000    0.0000002    0.0000000   -0.0000000   -0.0000000
 18   AU1 d-1      -0.0000000   -0.0000000   -0.0000000    0.0191720    0.0000000
 19   AU1 d+2       0.0000000   -0.0000000   -0.0000000   -0.0000000    0.0095858
 20   AU1 d-2       0.0000001   -0.0000000    0.0000002   -0.0000000   -0.0000000
 21   AU1 d0       -0.0000000   -0.0000000    0.0000000    0.0000000   -0.0467371
 22   AU1 d+1      -0.0000000   -0.0000009   -0.0000000    0.0000000    0.0000000
 23   AU1 d-1      -0.0000000    0.0000000    0.0000000   -0.0539665   -0.0000000
 24   AU1 d+2      -0.0000000    0.0000000    0.0000000    0.0000000   -0.0269819
 25   AU1 d-2      -0.0000003    0.0000000   -0.0000009   -0.0000000   -0.0000000
 26   AU1 f0        0.0001002    0.5591038    0.0000239    0.0000000   -0.0000000
 27   AU1 f+1      -0.0000000    0.0000000    0.0000000    0.0000002   -0.5605068
 28   AU1 f-1       0.6845475   -0.0000293    0.6847587    0.0000000    0.0000000
 29   AU1 f+2       0.0000776    0.4330779    0.0000185    0.0000000    0.0000000
 30   AU1 f-2      -0.0000000    0.0000000    0.0000000   -0.7089905   -0.0000003
 31   AU1 f+3      -0.0000000    0.0000000    0.0000000    0.0000002   -0.4341655
 32   AU1 f-3       0.1767519   -0.0000076    0.1768023    0.0000000    0.0000000
 33   AU2 s0       -0.0000000    0.0000000   -0.0000000   -0.0000000    0.0000003
 34   AU2 s0        0.0000000   -0.0000000    0.0000000    0.0000000   -0.0000008
 35   AU2 s0       -0.0000000   -0.0000000   -0.0000000   -0.0000000    0.0000021
 36   AU2 s0        0.0000000    0.0000000    0.0000000    0.0000000   -0.0000018
 37   AU2 s0        0.0000000   -0.0000000   -0.0000000   -0.0000000    0.0000001
 38   AU2 s0       -0.0000000   -0.0000000    0.0000000    0.0000000   -0.0000041
 39   AU2 p0        0.0000000   -0.0000001   -0.0000000    0.0000000    0.0000000
 40   AU2 p+1       0.0000000   -0.0000000   -0.0000000    0.0000000   -0.0000011
 41   AU2 p-1       0.0000001    0.0000000   -0.0000001    0.0000000    0.0000000
 42   AU2 p0       -0.0000000    0.0000002    0.0000000   -0.0000000   -0.0000000
 43   AU2 p+1      -0.0000000    0.0000000    0.0000000   -0.0000000    0.0000019
 44   AU2 p-1      -0.0000002   -0.0000000    0.0000002   -0.0000000   -0.0000000
 45   AU2 p0        0.0000000    0.0000003    0.0000000   -0.0000000   -0.0000000
 46   AU2 p+1       0.0000000    0.0000000   -0.0000000   -0.0000000    0.0000022
 47   AU2 p-1       0.0000001   -0.0000000    0.0000003    0.0000000    0.0000000
 48   AU2 d0       -0.0000000    0.0000000    0.0000000    0.0000000   -0.0166035
 49   AU2 d+1      -0.0000000    0.0000002    0.0000000   -0.0000000   -0.0000000
 50   AU2 d-1      -0.0000000    0.0000000    0.0000000   -0.0191720   -0.0000000
 51   AU2 d+2      -0.0000000    0.0000000    0.0000000    0.0000000   -0.0095858
 52   AU2 d-2      -0.0000001   -0.0000000    0.0000002    0.0000000    0.0000000
 53   AU2 d0        0.0000000   -0.0000000   -0.0000000   -0.0000000    0.0467371
 54   AU2 d+1       0.0000000   -0.0000009   -0.0000000    0.0000000    0.0000000
 55   AU2 d-1      -0.0000000   -0.0000000   -0.0000000    0.0539665    0.0000000
 56   AU2 d+2       0.0000000   -0.0000000   -0.0000000   -0.0000000    0.0269819
 57   AU2 d-2       0.0000003    0.0000000   -0.0000009   -0.0000000   -0.0000000
 58   AU2 f0        0.0001002   -0.5591038   -0.0000239   -0.0000000   -0.0000000
 59   AU2 f+1      -0.0000000   -0.0000000    0.0000000    0.0000002   -0.5605068
 60   AU2 f-1       0.6845475    0.0000293   -0.6847587   -0.0000000   -0.0000000
 61   AU2 f+2       0.0000776   -0.4330779   -0.0000185   -0.0000000   -0.0000000
 62   AU2 f-2      -0.0000000    0.0000000    0.0000000   -0.7089905   -0.0000003
 63   AU2 f+3      -0.0000000   -0.0000000    0.0000000    0.0000002   -0.4341655
 64   AU2 f-3       0.1767519    0.0000076   -0.1768023   -0.0000000   -0.0000000

            Ene     1.8598612    1.8631673    1.8631673    1.8787346    1.8787346
            Sym             A            A            A            A            A
            Occ             0            0            0            0            0


                           56           57           58           59           60

 1    AU1 s0       -0.0000000    0.0000000    0.2151074    0.3670280    0.2955166
 2    AU1 s0        0.0000000   -0.0000000   -0.5603949   -0.9573380   -0.7715935
 3    AU1 s0       -0.0000000    0.0000000    1.5450370    2.7149938    2.2870749
 4    AU1 s0        0.0000000   -0.0000000   -1.5878555   -2.9420788   -2.7311996
 5    AU1 s0       -0.0000000    0.0000000    0.6428495    1.3154342    1.7894749
 6    AU1 s0        0.0000000   -0.0000000   -1.4663025   -0.4552711   -0.2783025
 7    AU1 p0        0.0844562    0.0000000    0.0000000    0.0000000    0.0000000
 8    AU1 p+1      -0.0000000   -0.0000000    0.2704713    0.0254603   -0.4188695
 9    AU1 p-1      -0.0000000    0.0844563   -0.0000000    0.0000000   -0.0000000
 10   AU1 p0       -0.1274218   -0.0000000   -0.0000000   -0.0000000   -0.0000000
 11   AU1 p+1       0.0000000    0.0000000   -0.4641651   -0.0887095    0.7810897
 12   AU1 p-1       0.0000000   -0.1274218    0.0000000   -0.0000000    0.0000000
 13   AU1 p0       -0.1193028   -0.0000000    0.0000000    0.0000000    0.0000000
 14   AU1 p+1       0.0000000   -0.0000000   -0.6884762    0.0007772    0.2658756
 15   AU1 p-1       0.0000000   -0.1193028    0.0000000   -0.0000000    0.0000000
 16   AU1 d0        0.0000000   -0.0000000   -0.0202358    0.0250513   -0.0030981
 17   AU1 d+1       0.0672940    0.0000000   -0.0000000   -0.0000000   -0.0000000
 18   AU1 d-1       0.0000000   -0.0000000   -0.0000000   -0.0000000   -0.0000000
 19   AU1 d+2      -0.0000000    0.0000000    0.0350493   -0.0433906    0.0053655
 20   AU1 d-2      -0.0000000    0.0672940   -0.0000000    0.0000000   -0.0000000
 21   AU1 d0       -0.0000000    0.0000000    0.1777397   -0.0177061   -0.2115815
 22   AU1 d+1      -0.2745572   -0.0000000   -0.0000000    0.0000000    0.0000000
 23   AU1 d-1      -0.0000000   -0.0000000   -0.0000000   -0.0000000   -0.0000000
 24   AU1 d+2       0.0000000   -0.0000000   -0.3078545    0.0306679    0.3664698
 25   AU1 d-2       0.0000000   -0.2745571    0.0000000   -0.0000000    0.0000000
 26   AU1 f0        0.4406123    0.0000000    0.0000000   -0.0000000    0.0000000
 27   AU1 f+1      -0.0000000    0.0000000    0.3469250   -0.0347077   -0.2312985
 28   AU1 f-1      -0.0000000    0.1798782   -0.0000000    0.0000000   -0.0000000
 29   AU1 f+2      -0.5688307   -0.0000000   -0.0000000    0.0000000   -0.0000000
 30   AU1 f-2      -0.0000000    0.0000000    0.0000000   -0.0000000    0.0000000
 31   AU1 f+3       0.0000000   -0.0000000   -0.4478803    0.0448075    0.2986056
 32   AU1 f-3       0.0000000   -0.6966717    0.0000000   -0.0000000    0.0000000
 33   AU2 s0        0.0000000   -0.0000000   -0.2151074    0.3670280   -0.2955166
 34   AU2 s0       -0.0000000    0.0000000    0.5603949   -0.9573380    0.7715935
 35   AU2 s0        0.0000000   -0.0000000   -1.5450370    2.7149938   -2.2870749
 36   AU2 s0       -0.0000000    0.0000000    1.5878555   -2.9420788    2.7311996
 37   AU2 s0        0.0000000   -0.0000000   -0.6428495    1.3154342   -1.7894749
 38   AU2 s0       -0.0000000    0.0000000    1.4663025   -0.4552711    0.2783025
 39   AU2 p0       -0.0844562   -0.0000000    0.0000000   -0.0000000    0.0000000
 40   AU2 p+1      -0.0000000    0.0000000    0.2704713   -0.0254603   -0.4188695
 41   AU2 p-1       0.0000000   -0.0844563    0.0000000   -0.0000000    0.0000000
 42   AU2 p0        0.1274218    0.0000000   -0.0000000    0.0000000   -0.0000000
 43   AU2 p+1       0.0000000   -0.0000000   -0.4641651    0.0887095    0.7810897
 44   AU2 p-1      -0.0000000    0.1274218   -0.0000000    0.0000000   -0.0000000
 45   AU2 p0        0.1193028    0.0000000    0.0000000   -0.0000000    0.0000000
 46   AU2 p+1       0.0000000    0.0000000   -0.6884762   -0.0007772    0.2658756
 47   AU2 p-1      -0.0000000    0.1193028   -0.0000000    0.0000000   -0.0000000
 48   AU2 d0        0.0000000   -0.0000000    0.0202358    0.0250513    0.0030981
 49   AU2 d+1       0.0672940    0.0000000    0.0000000   -0.0000000    0.0000000
 50   AU2 d-1       0.0000000   -0.0000000   -0.0000000   -0.0000000    0.0000000
 51   AU2 d+2      -0.0000000    0.0000000   -0.0350493   -0.0433906   -0.0053655
 52   AU2 d-2      -0.0000000    0.0672940   -0.0000000    0.0000000   -0.0000000
 53   AU2 d0        0.0000000    0.0000000   -0.1777397   -0.0177061    0.2115815
 54   AU2 d+1      -0.2745572   -0.0000000   -0.0000000    0.0000000    0.0000000
 55   AU2 d-1      -0.0000000    0.0000000   -0.0000000    0.0000000   -0.0000000
 56   AU2 d+2      -0.0000000   -0.0000000    0.3078545    0.0306679   -0.3664698
 57   AU2 d-2       0.0000000   -0.2745571    0.0000000   -0.0000000    0.0000000
 58   AU2 f0       -0.4406123   -0.0000000   -0.0000000    0.0000000   -0.0000000
 59   AU2 f+1      -0.0000000    0.0000000    0.3469250    0.0347077   -0.2312985
 60   AU2 f-1       0.0000000   -0.1798782    0.0000000   -0.0000000    0.0000000
 61   AU2 f+2       0.5688307    0.0000000    0.0000000   -0.0000000    0.0000000
 62   AU2 f-2      -0.0000000    0.0000000    0.0000000   -0.0000000   -0.0000000
 63   AU2 f+3      -0.0000000   -0.0000000   -0.4478803   -0.0448075    0.2986056
 64   AU2 f-3      -0.0000000    0.6966717   -0.0000000    0.0000000   -0.0000000

            Ene     1.9997678    1.9997686    2.1306349    2.2677668    2.4003164
            Sym             A            A            A            A            A
            Occ             0            0            0            0            0


                          61           62           63           64

 1    AU1 s0        1.9758967    1.9780177    1.7823479    1.7835509
 2    AU1 s0       -2.9669944   -2.9718530   -1.4117808   -1.4140390
 3    AU1 s0        1.5141722    1.5330574    0.5066541    0.5130491
 4    AU1 s0       -0.9748804   -1.0197504   -0.3146987   -0.3293009
 5    AU1 s0        0.3043366    0.3970821    0.0976825    0.1274379
 6    AU1 s0       -0.1039670   -0.2465571   -0.0334646   -0.0792836
 7    AU1 p0       -0.0000000   -0.0000000   -0.0000000   -0.0000000
 8    AU1 p+1       0.0017305   -0.0195656    0.0005558   -0.0061872
 9    AU1 p-1       0.0000000   -0.0000000    0.0000000    0.0000000
 10   AU1 p0        0.0000000    0.0000000    0.0000000   -0.0000000
 11   AU1 p+1      -0.0104907    0.0475467   -0.0033326    0.0151171
 12   AU1 p-1       0.0000000    0.0000000   -0.0000000   -0.0000000
 13   AU1 p0       -0.0000000    0.0000000   -0.0000000    0.0000000
 14   AU1 p+1      -0.0061253   -0.0447197   -0.0020204   -0.0143366
 15   AU1 p-1      -0.0000000   -0.0000000   -0.0000000    0.0000000
 16   AU1 d0        0.0026386   -0.0021270    0.0008301   -0.0006668
 17   AU1 d+1       0.0000000   -0.0000000    0.0000000   -0.0000000
 18   AU1 d-1       0.0000000   -0.0000000   -0.0000000    0.0000000
 19   AU1 d+2      -0.0045702    0.0036841   -0.0014379    0.0011550
 20   AU1 d-2      -0.0000000   -0.0000000   -0.0000000   -0.0000000
 21   AU1 d0        0.0002091   -0.0113459    0.0001099   -0.0036637
 22   AU1 d+1      -0.0000000    0.0000000   -0.0000000    0.0000000
 23   AU1 d-1       0.0000000   -0.0000000    0.0000000   -0.0000000
 24   AU1 d+2      -0.0003622    0.0196518   -0.0001904    0.0063456
 25   AU1 d-2       0.0000000    0.0000000    0.0000000   -0.0000000
 26   AU1 f0       -0.0000000    0.0000000   -0.0000000    0.0000000
 27   AU1 f+1      -0.0003082   -0.0039275   -0.0000605   -0.0012475
 28   AU1 f-1       0.0000000    0.0000000    0.0000000    0.0000000
[...]
    9    -0.00000000000000     0.02566902773986     0.00000000000000    -0.00000000000000    -0.00000000000000
   10     0.00000000000000    -0.00000000000000    -0.00000000000000    -0.00183450355295    -0.00000000000000
   11     0.00902192843247    -0.00000000000000    -0.00134230287151     0.00000000000000     0.00000000000000
   12     0.00000000000000    -0.00722580142115    -0.00000000000000    -0.00000000000000     0.00000000000000
   13     0.00000000000000    -0.00000000000000     0.00000000000000    -0.00491336733461    -0.00000000000000
   14     0.06789766727473     0.00000000000000    -0.00963885316500    -0.00000000000000     0.00000000000000
   15    -0.00000000000000    -0.01953642842670     0.00000000000000     0.00000000000000     0.00000000000000
   16     0.00636623084154     0.00000000000000    -0.00402371692170    -0.00000000000000    -0.00000000000000
   17    -0.00000000000000    -0.00000000000000     0.00000000000000     0.01858171079532     0.00000000000000
   18     0.00000000000000     0.00000000000000     0.00000000000000    -0.00000000000000    -0.00293159400570
   19    -0.02587218815328    -0.00000000000000     0.00189056979424     0.00000000000000    -0.00000000000000
   20    -0.00000000000000     0.05212934792726    -0.00000000000000     0.00000000000000     0.00000000000000
   21     0.00189056979428    -0.00000000000000    -0.00083466629243     0.00000000000000    -0.00000000000000
   22    -0.00000000000000    -0.00000000000001     0.00000000000000     0.00600781308712    -0.00000000000000
   23    -0.00000000000000     0.00000000000000    -0.00000000000000    -0.00000000000000    -0.00054910325676
   24    -0.00620563254939     0.00000000000000     0.00049433683325    -0.00000000000000     0.00000000000000
   25    -0.00000000000000     0.01858172633543    -0.00000000000000     0.00000000000000     0.00000000000000
   26    -0.00000000000000     0.00000000000000     0.00000000000000     0.00109016857919     0.00000000000000
   27    -0.00417608506679     0.00000000000000     0.00101615981825    -0.00000000000000     0.00000000000000
   28    -0.00000000000000     0.00177090272166     0.00000000000000    -0.00000000000000     0.00000000000000
   29    -0.00000000000000    -0.00000000000000    -0.00000000000000    -0.00140740270586    -0.00000000000000
   30    -0.00000000000000     0.00000000000000    -0.00000000000000    -0.00000000000000     0.00047433625679
   31     0.00700156891625    -0.00000000000000    -0.00064104547568     0.00000000000000     0.00000000000000
   32    -0.00000000000000    -0.00685868917859     0.00000000000000     0.00000000000000     0.00000000000000
   33     0.01258282856361    -0.00000000000000    -0.00090669302849    -0.00000000000000     0.00000000000000
   34    -0.03221842447572     0.00000000000000     0.00236293763136     0.00000000000000    -0.00000000000000
   35     0.05043174891800     0.00000000000000    -0.00416877675575    -0.00000000000000    -0.00000000000000
   36     0.01298072163142    -0.00000000000000    -0.00080944782849    -0.00000000000000     0.00000000000000
   37    -0.04733753541968     0.00000000000000     0.00432592427812    -0.00000000000000     0.00000000000000
   38    -0.15320194521371    -0.00000000000001     0.01939670762684     0.00000000000000    -0.00000000000000
   39    -0.00000000000000    -0.00000000000000    -0.00000000000000    -0.00252423668295     0.00000000000000
   40     0.00547215454661     0.00000000000000     0.00031914403468    -0.00000000000000    -0.00000000000000
   41    -0.00000000000000    -0.00453964825014     0.00000000000000     0.00000000000000     0.00000000000000
   42     0.00000000000000     0.00000000000000    -0.00000000000000     0.00094993988315    -0.00000000000000
   43    -0.00347716323438    -0.00000000000000     0.00079880441565     0.00000000000000     0.00000000000000
   44     0.00000000000000     0.00418929776441     0.00000000000000    -0.00000000000000    -0.00000000000000
   45    -0.00000000000000     0.00000000000000     0.00000000000000     0.00274907507837    -0.00000000000000
   46     0.06383296973161     0.00000000000000    -0.00830614118611    -0.00000000000000     0.00000000000000
   47     0.00000000000000     0.01054154062635     0.00000000000000    -0.00000000000000    -0.00000000000000
   48     0.01037224250916    -0.00000000000000     0.18782556106442    -0.00000000000000    -0.00000000000000
   49     0.00000000000000     0.00000000000001    -0.00000000000000     0.19422153285722    -0.00000000000000
   50     0.00000000000000     0.00000000000001     0.00000000000000    -0.00000000000001     0.19051817319286
   51     0.76868217542009    -0.00000000000000     0.00466433469160    -0.00000000000000    -0.00000000000000
   52    -0.00000000000000     0.78299526200428     0.00000000000000    -0.00000000000002    -0.00000000000001
   53     0.00466433469160     0.00000000000000     0.04522903852241    -0.00000000000000     0.00000000000000
   54    -0.00000000000000    -0.00000000000002    -0.00000000000000     0.04821926834409    -0.00000000000000
   55    -0.00000000000000    -0.00000000000001     0.00000000000000    -0.00000000000000     0.04614200106698
   56     0.18243906643627     0.00000000000000     0.00158142488157    -0.00000000000000    -0.00000000000000
   57    -0.00000000000000     0.19422138333696     0.00000000000000    -0.00000000000001    -0.00000000000000
   58    -0.00000000000000     0.00000000000000     0.00000000000000    -0.00057432750852    -0.00000000000000
   59     0.00037449693041    -0.00000000000000     0.00079570024289     0.00000000000000    -0.00000000000000
   60    -0.00000000000000    -0.00089699927434    -0.00000000000000     0.00000000000000     0.00000000000000
   61     0.00000000000000     0.00000000000000    -0.00000000000000     0.00074143917291     0.00000000000000
   62     0.00000000000000     0.00000000000000    -0.00000000000000     0.00000000000000     0.00095148401647
   63     0.00272961312925    -0.00000000000000     0.00031837145655    -0.00000000000000    -0.00000000000000
   64     0.00000000000000     0.00347392095816    -0.00000000000000    -0.00000000000000    -0.00000000000000

                56                  57                  58                  59                  60

    1    -0.00447335424033     0.00000000000000    -0.00000000000000    -0.00012437185573     0.00000000000000
    2     0.01141170884718    -0.00000000000000     0.00000000000000     0.00032099766580    -0.00000000000000
    3    -0.01754014371799    -0.00000000000000    -0.00000000000000    -0.00050034467433     0.00000000000000
    4    -0.00421231975266     0.00000000000000    -0.00000000000000    -0.00022935323405     0.00000000000000
    5     0.01463505854330    -0.00000000000000    -0.00000000000000     0.00074125400105    -0.00000000000000
    6     0.02625522383841     0.00000000000000    -0.00000000000000    -0.00065292959703    -0.00000000000000
    7    -0.00000000000000     0.00000000000000    -0.00024774807866    -0.00000000000000    -0.00000000000000
    8    -0.01093204140605    -0.00000000000000     0.00000000000000     0.00026719737656    -0.00000000000000
    9    -0.00000000000000     0.00626111610315     0.00000000000000     0.00000000000000    -0.00010114223732
   10     0.00000000000000    -0.00000000000000     0.00002135915028    -0.00000000000000    -0.00000000000000
   11     0.00232525521925    -0.00000000000000    -0.00000000000000     0.00016386224991    -0.00000000000000
   12     0.00000000000000    -0.00183448778071     0.00000000000000     0.00000000000000     0.00000872112183
   13     0.00000000000000    -0.00000000000000     0.00010414462553    -0.00000000000000    -0.00000000000000
   14     0.01669580399803     0.00000000000000    -0.00000000000000    -0.00044241132919    -0.00000000000000
   15    -0.00000000000000    -0.00491334547041    -0.00000000000000     0.00000000000000     0.00004251866167
   16     0.00189130507720    -0.00000000000000     0.00000000000000    -0.00421134307542    -0.00000000000000
   17    -0.00000000000000     0.00000000000000    -0.00433782860316     0.00000000000000    -0.00000000000000
   18    -0.00000000000000     0.00000000000000     0.00000000000000     0.00000000000000    -0.00000000000000
   19    -0.00620563254932     0.00000000000000     0.00000000000000     0.00417608506679     0.00000000000000
   20     0.00000000000000     0.01858172633546    -0.00000000000000     0.00000000000000    -0.00177090272167
   21     0.00049433683325    -0.00000000000000     0.00000000000000    -0.00101615981825    -0.00000000000000
   22    -0.00000000000000    -0.00000000000000    -0.00109016857919     0.00000000000000    -0.00000000000000
   23    -0.00000000000000     0.00000000000000     0.00000000000000     0.00000000000000    -0.00000000000000
   24    -0.00140484832872     0.00000000000000     0.00000000000000     0.00101006855264    -0.00000000000000
   25     0.00000000000000     0.00600783853738    -0.00000000000000     0.00000000000000    -0.00044505712896
   26    -0.00000000000000     0.00000000000000    -0.00002215874772     0.00000000000000     0.00000000000000
   27    -0.00101006855264     0.00000000000000     0.00000000000000     0.00002031910256     0.00000000000000
   28    -0.00000000000000     0.00044505712896     0.00000000000000     0.00000000000000    -0.00000369319468
   29    -0.00000000000000    -0.00000000000000     0.00002860650300    -0.00000000000000    -0.00000000000000
   30    -0.00000000000000     0.00000000000000     0.00000000000000    -0.00000000000000     0.00000000000000
   31     0.00169129087834    -0.00000000000000    -0.00000000000000    -0.00000134820104    -0.00000000000000
   32    -0.00000000000000    -0.00172370094404     0.00000000000000     0.00000000000000     0.00001430335986
   33     0.00157072108897    -0.00000000000000    -0.00000000000000    -0.00042823781639     0.00000000000000
   34    -0.00409346842728     0.00000000000000     0.00000000000000     0.00109517683312    -0.00000000000000
   35     0.00722185905992    -0.00000000000000    -0.00000000000000    -0.00168025000483     0.00000000000000
   36     0.00140236159541    -0.00000000000000    -0.00000000000000    -0.00051387760610     0.00000000000000
   37    -0.00749602413713     0.00000000000000     0.00000000000000     0.00170553893232    -0.00000000000000
   38    -0.03359677422468    -0.00000000000000     0.00000000000000     0.00196934501494     0.00000000000000
   39     0.00000000000000     0.00000000000000    -0.00057867062461     0.00000000000000     0.00000000000000
   40    -0.00055162745434    -0.00000000000000    -0.00000000000000    -0.00027273029839     0.00000000000000
   41    -0.00000000000000    -0.00252415749865     0.00000000000000     0.00000000000000    -0.00023622479122
   42     0.00000000000000     0.00000000000000    -0.00013273838266     0.00000000000000     0.00000000000000
   43    -0.00138437195379    -0.00000000000000    -0.00000000000000    -0.00026163462316     0.00000000000000
   44     0.00000000000000     0.00095007591032     0.00000000000000     0.00000000000000    -0.00005418878462
   45    -0.00000000000000     0.00000000000000    -0.00013213126995     0.00000000000000     0.00000000000000
   46     0.01438513710504     0.00000000000000    -0.00000000000000    -0.00092002030012    -0.00000000000000
   47     0.00000000000000     0.00274924584227     0.00000000000000     0.00000000000000    -0.00005394286308
   48     0.00466405532164     0.00000000000000     0.00000000000000     0.00337625563069    -0.00000000000000
   49    -0.00000000000000     0.00000000000000    -0.00219714481510     0.00000000000000     0.00000000000000
   50    -0.00000000000000    -0.00000000000000    -0.00000000000000    -0.00000000000000     0.00000000000000
   51     0.18243906643627    -0.00000000000000    -0.00000000000000     0.00037449693041    -0.00000000000000
   52     0.00000000000000     0.19422138333696     0.00000000000000    -0.00000000000000    -0.00089699927434
   53     0.00158142488157     0.00000000000000     0.00000000000000     0.00079570024289    -0.00000000000000
   54    -0.00000000000000    -0.00000000000001    -0.00057432750852     0.00000000000000     0.00000000000000
   55    -0.00000000000000    -0.00000000000000    -0.00000000000000    -0.00000000000000     0.00000000000000
   56     0.04340284434559    -0.00000000000000    -0.00000000000000     0.00012626417287    -0.00000000000000
   57    -0.00000000000000     0.04821917906391     0.00000000000000    -0.00000000000000    -0.00023447288654
   58    -0.00000000000000     0.00000000000000     0.00002935415021     0.00000000000000    -0.00000000000000
   59     0.00012626417287    -0.00000000000000     0.00000000000000     0.00007042771263    -0.00000000000000
   60    -0.00000000000000    -0.00023447288654    -0.00000000000000    -0.00000000000000     0.00000489234713
   61     0.00000000000000     0.00000000000000    -0.00003789601183     0.00000000000000     0.00000000000000
   62     0.00000000000000     0.00000000000000    -0.00000000000000     0.00000000000000     0.00000000000000
   63     0.00061385363299    -0.00000000000000     0.00000000000000    -0.00005959413336     0.00000000000000
   64     0.00000000000000     0.00090807411149    -0.00000000000000     0.00000000000000    -0.00001894794674

                61                  62                  63                  64

    1     0.00000000000000     0.00000000000000     0.00016058727617     0.00000000000000
    2    -0.00000000000000    -0.00000000000000    -0.00041446721549    -0.00000000000000
    3     0.00000000000000     0.00000000000000     0.00064603444455     0.00000000000000
    4     0.00000000000000     0.00000000000000     0.00029612211050     0.00000000000000
    5     0.00000000000000    -0.00000000000000    -0.00095703344619     0.00000000000000
    6    -0.00000000000000     0.00000000000000     0.00084286594440     0.00000000000000
    7     0.00031984363835     0.00000000000000     0.00000000000000     0.00000000000000
    8    -0.00000000000000     0.00000000000000    -0.00034492207650     0.00000000000000
    9    -0.00000000000000     0.00000000000000     0.00000000000000     0.00039172756414
   10    -0.00002757353218    -0.00000000000000     0.00000000000000     0.00000000000000
   11     0.00000000000000     0.00000000000000    -0.00021156057336     0.00000000000000
   12    -0.00000000000000     0.00000000000000     0.00000000000000    -0.00003377426877
   13    -0.00013444878656    -0.00000000000000     0.00000000000000    -0.00000000000000
   14     0.00000000000000     0.00000000000000     0.00057112077692     0.00000000000000
   15     0.00000000000000    -0.00000000000000     0.00000000000000    -0.00016467073359
   16     0.00000000000000    -0.00000000000000     0.00264781755245    -0.00000000000000
   17     0.00560011880047     0.00000000000000     0.00000000000000     0.00000000000000
   18     0.00000000000000    -0.00197213283726    -0.00000000000000    -0.00000000000000
   19     0.00000000000000     0.00000000000000    -0.00700156891625     0.00000000000000
   20     0.00000000000000     0.00000000000000    -0.00000000000000     0.00685868917858
   21     0.00000000000000    -0.00000000000000     0.00064104547568    -0.00000000000000
   22     0.00140740270586     0.00000000000000    -0.00000000000000    -0.00000000000000
   23     0.00000000000000    -0.00047433625679    -0.00000000000000    -0.00000000000000
   24     0.00000000000000     0.00000000000000    -0.00169129087834     0.00000000000000
   25     0.00000000000000     0.00000000000000    -0.00000000000000     0.00172370094404
   26     0.00002860650300     0.00000000000000    -0.00000000000000     0.00000000000000
   27     0.00000000000000     0.00000000000000    -0.00000134820104    -0.00000000000000
   28     0.00000000000000     0.00000000000000    -0.00000000000000     0.00001430335986
   29    -0.00003693042695    -0.00000000000000    -0.00000000000000    -0.00000000000000
   30    -0.00000000000000     0.00001927358064    -0.00000000000000     0.00000000000000
   31     0.00000000000000     0.00000000000000     0.00002101210736     0.00000000000000
   32    -0.00000000000000    -0.00000000000000     0.00000000000000    -0.00005539542884
   33    -0.00000000000000     0.00000000000000     0.00055291180259     0.00000000000000
   34     0.00000000000000    -0.00000000000000    -0.00141401696320    -0.00000000000000
   35    -0.00000000000000     0.00000000000000     0.00216940610459     0.00000000000000
   36    -0.00000000000000     0.00000000000000     0.00066348761607     0.00000000000000
   37    -0.00000000000000     0.00000000000000    -0.00220206992483     0.00000000000000
   38    -0.00000000000000    -0.00000000000000    -0.00254253692187    -0.00000000000000
   39     0.00074714871694     0.00000000000000    -0.00000000000000    -0.00000000000000
   40    -0.00000000000000     0.00000000000000     0.00035206635925    -0.00000000000000
   41    -0.00000000000000     0.00000000000000     0.00000000000000     0.00091513040562
   42     0.00017137441292     0.00000000000000    -0.00000000000000    -0.00000000000000
   43    -0.00000000000000    -0.00000000000000     0.00033776942910    -0.00000000000000
   44    -0.00000000000000     0.00000000000000    -0.00000000000000     0.00020989874265
   45     0.00017058034955     0.00000000000000    -0.00000000000000     0.00000000000000
   46     0.00000000000000     0.00000000000000     0.00118774763740     0.00000000000000
   47    -0.00000000000000    -0.00000000000000    -0.00000000000000     0.00020891883257
   48    -0.00000000000000    -0.00000000000000     0.00120667045671    -0.00000000000000
   49     0.00283644371016     0.00000000000000    -0.00000000000000     0.00000000000000
   50     0.00000000000000     0.00393530079329    -0.00000000000000     0.00000000000000
   51     0.00000000000000     0.00000000000000     0.00272961312925     0.00000000000000
   52     0.00000000000000     0.00000000000000    -0.00000000000000     0.00347392095816
   53    -0.00000000000000    -0.00000000000000     0.00031837145655    -0.00000000000000
   54     0.00074143917291     0.00000000000000    -0.00000000000000    -0.00000000000000
   55     0.00000000000000     0.00095148401647    -0.00000000000000    -0.00000000000000
   56     0.00000000000000     0.00000000000000     0.00061385363299     0.00000000000000
   57     0.00000000000000     0.00000000000000    -0.00000000000000     0.00090807411149
   58    -0.00003789601183    -0.00000000000000     0.00000000000000    -0.00000000000000
   59     0.00000000000000     0.00000000000000    -0.00005959413336     0.00000000000000
   60     0.00000000000000     0.00000000000000     0.00000000000000    -0.00001894794674
   61     0.00004892349814     0.00000000000000    -0.00000000000000    -0.00000000000000
   62     0.00000000000000     0.00002426712120    -0.00000000000000     0.00000000000000
   63    -0.00000000000000    -0.00000000000000     0.00010120420747    -0.00000000000000
   64    -0.00000000000000     0.00000000000000    -0.00000000000000     0.00007338495753




Reading options from the SYSHFWPLUG block
Calling plugin syshfwplug.so.


    Molecular point group: c1
    Full point group: D_inf_h

    Geometry (in Angstrom), charge = 0, multiplicity = 1:

       Center              X                  Y                   Z               Mass       
    ------------   -----------------  -----------------  -----------------  -----------------
          AU         -1.250000000000     0.000000000000     0.000000000000   196.966568662000
          AU          1.250000000000     0.000000000000     0.000000000000   196.966568662000


    Nuclear repulsion energy:      76.41318892


*** Psi4 exiting successfully. Buy a developer a beer!
