
    -----------------------------------------------------------------------
          Psi4: An Open-Source Ab Initio Electronic Structure Package
                               Psi4 1.2a1.dev547 

                         Git: Rev {master} f5560a0 


    R. M. Parrish, L. A. Burns, D. G. A. Smith, A. C. Simmonett,
    A. E. DePrince III, E. G. Hohenstein, U. Bozkaya, A. Yu. Sokolov,
    R. Di Remigio, R. M. Richard, J. F. Gonthier, A. M. James,
    H. R. McAlexander, A. Kumar, M. Saitow, X. Wang, B. P. Pritchard,
    P. Verma, H. F. Schaefer III, K. Patkowski, R. A. King, E. F. Valeev,
    F. A. Evangelista, J. M. Turney, T. D. Crawford, and C. D. Sherrill,
    J. Chem. Theory Comput. 13(7) pp 3185--3197 (2017).
    (doi: 10.1021/acs.jctc.7b00174)

    -----------------------------------------------------------------------


    Psi4 started on: Saturday, 18 November 2017 10:51PM

    Process ID:  21128
    PSIDATADIR: /home/i/ihamilto/ehlert/psi4build/share/psi4
    Memory:     500.0 MiB
    Threads:    1
    
  ==> Input File <==

--------------------------------------------------------------------------

# PYTHONPATH must include directory above plugin directory.
#     Define either externally or here, then import plugin.
sys.path.insert(0, './..')
import syshfwplug


plugin_load("./syshfwplug.so")


molecule {
Au 0.0 0.0 0.0 
Au 2.5 0.0 0.0
symmetry c1
}

set {
  basis def2-svp
}

set syshfwplug {
  pref mytest
  do_tei 1
  print 1
}

set scf reference rhf
set scf_type pk
set scf PRINT_MOS  true


e_scf,ref_wfn = energy('scf',return_wfn=True)

plugin("syshfwplug.so", ref_wfn)
#syshfwplug.exampleFN(ref_wfn)
--------------------------------------------------------------------------
/bg01/homescinet/i/ihamilto/ehlert/corr/syshfwplug/syshfwplug.so loaded.

*** tstart() called on gpc-f104n084-ib0
*** at Sat Nov 18 22:51:10 2017

   => Loading Basis Set <=

    Name: DEF2-SVP
    Role: ORBITAL
    Keyword: BASIS
    atoms 1-2 entry AU         line  2095 (ECP: line  3066) file /home/i/ihamilto/ehlert/psi4build/share/psi4/basis/def2-svp.gbs 

    There are an even number of electrons - assuming singlet.
    Specify the multiplicity in the molecule input block.


         ---------------------------------------------------------
                                   SCF
            by Justin Turney, Rob Parrish, Andy Simmonett
                             and Daniel Smith
                              RHF Reference
                        1 Threads,    500 MiB Core
         ---------------------------------------------------------

  ==> Geometry <==

    Molecular point group: c1
    Full point group: D_inf_h

    Geometry (in Angstrom), charge = 0, multiplicity = 1:

       Center              X                  Y                   Z               Mass       
    ------------   -----------------  -----------------  -----------------  -----------------
          AU         -1.250000000000     0.000000000000     0.000000000000   196.966568662000
          AU          1.250000000000     0.000000000000     0.000000000000   196.966568662000

  Running in c1 symmetry.

  Rotational constants: A = ************  B =      0.02739  C =      0.02739 [cm^-1]
  Rotational constants: A = ************  B =    821.05955  C =    821.05955 [MHz]
  Nuclear repulsion =   76.413188920396010

  Charge       = 0
  Multiplicity = 1
  Electrons    = 38
  Nalpha       = 19
  Nbeta        = 19

  ==> Algorithm <==

  SCF Algorithm Type is PK.
  DIIS enabled.
  MOM disabled.
  Fractional occupation disabled.
  Guess Type is SAD.
  Energy threshold   = 1.00e-06
  Density threshold  = 1.00e-06
  Integral threshold = 0.00e+00

  ==> Primary Basis <==

  Basis Set: DEF2-SVP
    Blend: DEF2-SVP
    Number of shells: 24
    Number of basis function: 64
    Number of Cartesian functions: 74
    Spherical Harmonics?: true
    Max angular momentum: 3

  Core potential: DEF2-SVP
    Number of shells: 8
    Number of ECP primitives: 28
    Number of ECP core electrons: 120
    Max angular momentum: 3

  ==> Pre-Iterations <==

   -------------------------------------------------------
    Irrep   Nso     Nmo     Nalpha   Nbeta   Ndocc  Nsocc
   -------------------------------------------------------
     A         64      64       0       0       0       0
   -------------------------------------------------------
    Total      64      64      19      19      19       0
   -------------------------------------------------------

  ==> Integral Setup <==

  Using in-core PK algorithm.
   Calculation information:
      Number of atoms:                   2
      Number of AO shells:              24
      Number of primitives:             38
      Number of atomic orbitals:        74
      Number of basis functions:        64

      Integral cutoff                 1.00e-12
      Number of threads:                 1

  Performing in-core PK
  Using 4328480 doubles for integral storage.
  We computed 43281 shell quartets total.
  Whereas there are 45150 unique shell quartets.
  ==> DiskJK: Disk-Based J/K Matrices <==

    J tasked:                  Yes
    K tasked:                  Yes
    wK tasked:                  No
    Memory (MB):               375
    Schwarz Cutoff:          1E-12

    OpenMP threads:              1
  Minimum eigenvalue in the overlap matrix is 5.6592617467E-03.
  Using Symmetric Orthogonalization.

  SCF Guess: Superposition of Atomic Densities via on-the-fly atomic UHF.

  ==> Iterations <==

                        Total Energy        Delta E     RMS |[F,P]|

   @RHF iter   0:   747.09638607675402    7.47096e+02   2.20853e-01 
   @RHF iter   1:  -227.84720721180486   -9.74944e+02   1.30083e-01 
   @RHF iter   2:  -264.23243742262378   -3.63852e+01   4.95399e-02 DIIS
   @RHF iter   3:  -269.17718865093940   -4.94475e+00   1.39867e-02 DIIS
   @RHF iter   4:  -269.55794361993401   -3.80755e-01   4.66664e-03 DIIS
   @RHF iter   5:  -269.58657765029085   -2.86340e-02   2.18609e-03 DIIS
   @RHF iter   6:  -269.59325530108038   -6.67765e-03   5.10061e-04 DIIS
   @RHF iter   7:  -269.59379789662728   -5.42596e-04   6.49596e-05 DIIS
   @RHF iter   8:  -269.59384527981564   -4.73832e-05   2.28397e-05 DIIS
   @RHF iter   9:  -269.59385451481455   -9.23500e-06   6.53774e-06 DIIS
   @RHF iter  10:  -269.59385487949550   -3.64681e-07   1.69898e-06 DIIS
   @RHF iter  11:  -269.59385489863104   -1.91355e-08   2.11899e-07 DIIS

  ==> Post-Iterations <==

    Orbital Energies (a.u.)
    -----------------------

    Doubly Occupied:                                                      

       1A     -4.687984     2A     -4.687032     3A     -2.738481  
       4A     -2.722518     5A     -2.722517     6A     -2.721822  
       7A     -2.721138     8A     -2.721137     9A     -0.515924  
      10A     -0.490869    11A     -0.490869    12A     -0.452652  
      13A     -0.452652    14A     -0.438948    15A     -0.438948  
      16A     -0.418285    17A     -0.418285    18A     -0.403843  
      19A     -0.291365  

    Virtual:                                                              

      20A     -0.007275    21A      0.068308    22A      0.068309  
      23A      0.092513    24A      0.141508    25A      0.141508  
      26A      0.210742    27A      0.259801    28A      0.322118  
      29A      0.594146    30A      0.594146    31A      0.632262  
      32A      0.632263    33A      0.670988    34A      0.692984  
      35A      0.692984    36A      0.772891    37A      0.772892  
      38A      0.798625    39A      0.976664    40A      1.028288  
      41A      1.028288    42A      1.097686    43A      1.097686  
      44A      1.514773    45A      1.772751    46A      1.772752  
      47A      1.780935    48A      1.834529    49A      1.834529  
      50A      1.859863    51A      1.859863    52A      1.863169  
      53A      1.863169    54A      1.878737    55A      1.878737  
      56A      1.999770    57A      1.999771    58A      2.130637  
      59A      2.267769    60A      2.400318    61A     43.104529  
      62A     43.138440    63A    202.730067    64A    202.747649  

    Final Occupation by Irrep:
              A 
    DOCC [    19 ]

  Energy converged.

  @RHF Final Energy:  -269.59385489863104

   => Energetics <=

    Nuclear Repulsion Energy =             76.4131889203960100
    One-Electron Energy =                -630.9436114028803786
    Two-Electron Energy =                 284.9365675838533321
    Total Energy =                       -269.5938548986310366



Properties will be evaluated at   0.000000,   0.000000,   0.000000 Bohr

Properties computed using the SCF density matrix

  Nuclear Dipole Moment: (a.u.)
     X:     0.0000      Y:     0.0000      Z:     0.0000

  Electronic Dipole Moment: (a.u.)
     X:     0.0000      Y:    -0.0000      Z:     0.0000

  Dipole Moment: (a.u.)
     X:     0.0000      Y:    -0.0000      Z:     0.0000     Total:     0.0000

  Dipole Moment: (Debye)
     X:     0.0000      Y:    -0.0000      Z:     0.0000     Total:     0.0000


  ==> Molecular Orbitals <==

                            1            2            3            4            5

 1    AU1 s0        0.2773432    0.2775653    0.0002345   -0.0000000    0.0000000
 2    AU1 s0       -0.6753163   -0.6758653   -0.0006221    0.0000001   -0.0000000
 3    AU1 s0        0.7016945    0.7024631    0.0018761   -0.0000001    0.0000001
 4    AU1 s0        0.2488720    0.2489538   -0.0029279    0.0000000   -0.0000000
 5    AU1 s0        0.0059451    0.0055329    0.0017838    0.0000000   -0.0000000
 6    AU1 s0       -0.0008921   -0.0038416    0.0000181   -0.0000001    0.0000000
 7    AU1 p0       -0.0000000   -0.0000000   -0.0000003    0.6259268    0.1861333
 8    AU1 p+1      -0.0020193   -0.0021501    0.6502454   -0.0000074    0.0000036
 9    AU1 p-1       0.0000000    0.0000000    0.0000002   -0.1861333    0.6259267
 10   AU1 p0        0.0000000   -0.0000000   -0.0000000    0.0721970    0.0214694
 11   AU1 p+1      -0.0003638   -0.0011150    0.0749902   -0.0000008    0.0000004
 12   AU1 p-1      -0.0000000   -0.0000000    0.0000000   -0.0214694    0.0721972
 13   AU1 p0        0.0000000   -0.0000000   -0.0000000    0.0011280    0.0003355
 14   AU1 p+1      -0.0000926   -0.0017782    0.0009870   -0.0000001    0.0000000
 15   AU1 p-1       0.0000000    0.0000000   -0.0000000   -0.0003355    0.0011281
 16   AU1 d0       -0.0009315   -0.0007968    0.0002115   -0.0000000    0.0000000
 17   AU1 d+1      -0.0000000   -0.0000000    0.0000000   -0.0021471   -0.0006385
 18   AU1 d-1      -0.0000000   -0.0000000    0.0000000    0.0000000   -0.0000000
 19   AU1 d+2       0.0016136    0.0013802   -0.0003664    0.0000001   -0.0000000
 20   AU1 d-2       0.0000000    0.0000000   -0.0000000    0.0006385   -0.0021471
 21   AU1 d0        0.0002039    0.0004778   -0.0007697    0.0000000   -0.0000000
 22   AU1 d+1       0.0000000    0.0000000   -0.0000000    0.0004683    0.0001392
 23   AU1 d-1       0.0000000    0.0000000   -0.0000000   -0.0000000    0.0000000
 24   AU1 d+2      -0.0003533   -0.0008276    0.0013333   -0.0000000    0.0000000
 25   AU1 d-2      -0.0000000   -0.0000000    0.0000000   -0.0001393    0.0004682
 26   AU1 f0        0.0000000    0.0000000    0.0000000   -0.0006457   -0.0001920
 27   AU1 f+1      -0.0001103    0.0000393   -0.0010347    0.0000000   -0.0000000
 28   AU1 f-1       0.0000000    0.0000000    0.0000000    0.0000784   -0.0002636
 29   AU1 f+2       0.0000000    0.0000000    0.0000000    0.0008337    0.0002479
 30   AU1 f-2       0.0000000    0.0000000    0.0000000    0.0000000   -0.0000000
 31   AU1 f+3       0.0001424   -0.0000507    0.0013357   -0.0000000    0.0000000
 32   AU1 f-3       0.0000000    0.0000000    0.0000000   -0.0003036    0.0010211
 33   AU2 s0        0.2773432   -0.2775653    0.0002345    0.0000000   -0.0000000
 34   AU2 s0       -0.6753163    0.6758653   -0.0006221   -0.0000001    0.0000000
 35   AU2 s0        0.7016945   -0.7024631    0.0018761    0.0000001   -0.0000001
 36   AU2 s0        0.2488720   -0.2489538   -0.0029279   -0.0000000    0.0000000
 37   AU2 s0        0.0059451   -0.0055329    0.0017838   -0.0000000    0.0000000
 38   AU2 s0       -0.0008921    0.0038416    0.0000181    0.0000001   -0.0000000
 39   AU2 p0        0.0000000   -0.0000000    0.0000003    0.6259268    0.1861333
 40   AU2 p+1       0.0020193   -0.0021501   -0.6502454   -0.0000074    0.0000036
 41   AU2 p-1      -0.0000000    0.0000000   -0.0000002   -0.1861333    0.6259267
 42   AU2 p0       -0.0000000   -0.0000000    0.0000000    0.0721970    0.0214694
 43   AU2 p+1       0.0003638   -0.0011150   -0.0749902   -0.0000008    0.0000004
 44   AU2 p-1       0.0000000   -0.0000000   -0.0000000   -0.0214694    0.0721972
 45   AU2 p0       -0.0000000   -0.0000000    0.0000000    0.0011280    0.0003355
 46   AU2 p+1       0.0000926   -0.0017782   -0.0009870   -0.0000001    0.0000000
 47   AU2 p-1      -0.0000000    0.0000000    0.0000000   -0.0003355    0.0011281
 48   AU2 d0       -0.0009315    0.0007968    0.0002115    0.0000000   -0.0000000
 49   AU2 d+1      -0.0000000    0.0000000    0.0000000    0.0021471    0.0006385
 50   AU2 d-1      -0.0000000    0.0000000    0.0000000   -0.0000000    0.0000000
 51   AU2 d+2       0.0016136   -0.0013802   -0.0003664   -0.0000001    0.0000000
 52   AU2 d-2       0.0000000   -0.0000000   -0.0000000   -0.0006385    0.0021471
 53   AU2 d0        0.0002039   -0.0004778   -0.0007697   -0.0000000    0.0000000
 54   AU2 d+1       0.0000000   -0.0000000   -0.0000000   -0.0004683   -0.0001392
 55   AU2 d-1       0.0000000   -0.0000000   -0.0000000    0.0000000   -0.0000000
 56   AU2 d+2      -0.0003533    0.0008276    0.0013333    0.0000000   -0.0000000
 57   AU2 d-2      -0.0000000    0.0000000    0.0000000    0.0001393   -0.0004682
 58   AU2 f0       -0.0000000    0.0000000   -0.0000000   -0.0006457   -0.0001920
 59   AU2 f+1       0.0001103    0.0000393    0.0010347    0.0000000   -0.0000000
 60   AU2 f-1      -0.0000000    0.0000000   -0.0000000    0.0000784   -0.0002636
 61   AU2 f+2      -0.0000000    0.0000000   -0.0000000    0.0008337    0.0002479
 62   AU2 f-2      -0.0000000    0.0000000   -0.0000000    0.0000000   -0.0000000
 63   AU2 f+3      -0.0001424   -0.0000507   -0.0013357   -0.0000000    0.0000000
 64   AU2 f-3      -0.0000000    0.0000000   -0.0000000   -0.0003036    0.0010211

            Ene    -4.6879838   -4.6870322   -2.7384807   -2.7225177   -2.7225174
            Sym             A            A            A            A            A
            Occ             2            2            2            2            2


                            6            7            8            9           10

 1    AU1 s0        0.0029141    0.0000000   -0.0000000    0.0211802   -0.0000000
 2    AU1 s0       -0.0073235   -0.0000000    0.0000000   -0.0538019    0.0000000
 3    AU1 s0        0.0111701    0.0000000    0.0000000    0.0790085   -0.0000001
 4    AU1 s0       -0.0019648    0.0000000   -0.0000000    0.0243544   -0.0000000
 5    AU1 s0       -0.0029902   -0.0000000    0.0000000   -0.0718074    0.0000001
 6    AU1 s0        0.0065426   -0.0000000    0.0000000   -0.0004484   -0.0000000
 7    AU1 p0        0.0000061    0.6271304    0.1865755   -0.0000000    0.0046385
 8    AU1 p+1       0.6581333    0.0000003   -0.0000001    0.0570537    0.0000000
 9    AU1 p-1      -0.0000055   -0.1865755    0.6271302    0.0000000    0.0143243
 10   AU1 p0        0.0000007    0.0716516    0.0213169    0.0000000   -0.0008597
 11   AU1 p+1       0.0732453    0.0000000   -0.0000000   -0.0172458    0.0000000
 12   AU1 p-1      -0.0000006   -0.0213168    0.0716518   -0.0000000   -0.0026547
 13   AU1 p0        0.0000000    0.0011040    0.0003285    0.0000000   -0.0022933
 14   AU1 p+1       0.0042737    0.0000000   -0.0000000   -0.0171199   -0.0000001
 15   AU1 p-1      -0.0000000   -0.0003284    0.0011040   -0.0000000   -0.0070820
 16   AU1 d0        0.0025079    0.0000000    0.0000000    0.2976275   -0.0000001
 17   AU1 d+1      -0.0000000   -0.0025310   -0.0007530   -0.0000001   -0.1862317
 18   AU1 d-1       0.0000000    0.0000000   -0.0000000   -0.0000041    0.0000002
 19   AU1 d+2      -0.0043439    0.0000000    0.0000000   -0.5154937   -0.0000003
 20   AU1 d-2       0.0000000    0.0007530   -0.0025310   -0.0000002   -0.5751050
 21   AU1 d0       -0.0008497   -0.0000000   -0.0000000    0.0709888   -0.0000000
 22   AU1 d+1       0.0000000    0.0001517    0.0000451   -0.0000000   -0.0447559
 23   AU1 d-1      -0.0000000   -0.0000000    0.0000000   -0.0000008    0.0000000
 24   AU1 d+2       0.0014717   -0.0000000   -0.0000000   -0.1229539   -0.0000000
 25   AU1 d-2      -0.0000000   -0.0000451    0.0001517   -0.0000000   -0.1382113
 26   AU1 f0       -0.0000000   -0.0004353   -0.0001295   -0.0000000    0.0005462
 27   AU1 f+1      -0.0003210   -0.0000000    0.0000000    0.0041010    0.0000000
 28   AU1 f-1       0.0000000    0.0000529   -0.0001777    0.0000000    0.0006886
 29   AU1 f+2       0.0000000    0.0005620    0.0001672    0.0000000   -0.0007052
 30   AU1 f-2       0.0000000    0.0000000   -0.0000000    0.0000000   -0.0000000
 31   AU1 f+3       0.0004144    0.0000000    0.0000000   -0.0052945    0.0000000
 32   AU1 f-3      -0.0000000   -0.0002048    0.0006883    0.0000000   -0.0026671
 33   AU2 s0       -0.0029141    0.0000000   -0.0000000    0.0211802    0.0000000
 34   AU2 s0        0.0073235   -0.0000000    0.0000000   -0.0538019   -0.0000000
 35   AU2 s0       -0.0111701    0.0000000    0.0000000    0.0790085    0.0000001
 36   AU2 s0        0.0019648    0.0000000   -0.0000000    0.0243544    0.0000000
 37   AU2 s0        0.0029902   -0.0000000    0.0000000   -0.0718074   -0.0000001
 38   AU2 s0       -0.0065426   -0.0000000    0.0000000   -0.0004484    0.0000000
 39   AU2 p0        0.0000061   -0.6271304   -0.1865755    0.0000000    0.0046385
 40   AU2 p+1       0.6581333   -0.0000003    0.0000001   -0.0570537    0.0000000
 41   AU2 p-1      -0.0000055    0.1865755   -0.6271302   -0.0000000    0.0143243
 42   AU2 p0        0.0000007   -0.0716516   -0.0213169   -0.0000000   -0.0008597
 43   AU2 p+1       0.0732453   -0.0000000    0.0000000    0.0172458    0.0000000
 44   AU2 p-1      -0.0000006    0.0213168   -0.0716518    0.0000000   -0.0026547
 45   AU2 p0        0.0000000   -0.0011040   -0.0003285   -0.0000000   -0.0022933
 46   AU2 p+1       0.0042737   -0.0000000    0.0000000    0.0171199   -0.0000001
 47   AU2 p-1      -0.0000000    0.0003284   -0.0011040    0.0000000   -0.0070820
 48   AU2 d0       -0.0025079    0.0000000    0.0000000    0.2976275    0.0000001
 49   AU2 d+1       0.0000000   -0.0025310   -0.0007530   -0.0000001    0.1862317
 50   AU2 d-1      -0.0000000    0.0000000   -0.0000000   -0.0000041   -0.0000002
 51   AU2 d+2       0.0043439    0.0000000    0.0000000   -0.5154937    0.0000003
 52   AU2 d-2      -0.0000000    0.0007530   -0.0025310   -0.0000002    0.5751050
 53   AU2 d0        0.0008497   -0.0000000   -0.0000000    0.0709888    0.0000000
 54   AU2 d+1      -0.0000000    0.0001517    0.0000451   -0.0000000    0.0447559
 55   AU2 d-1       0.0000000   -0.0000000    0.0000000   -0.0000008   -0.0000000
 56   AU2 d+2      -0.0014717   -0.0000000   -0.0000000   -0.1229539    0.0000000
 57   AU2 d-2       0.0000000   -0.0000451    0.0001517   -0.0000000    0.1382113
 58   AU2 f0       -0.0000000    0.0004353    0.0001295    0.0000000    0.0005462
 59   AU2 f+1      -0.0003210    0.0000000   -0.0000000   -0.0041010    0.0000000
 60   AU2 f-1       0.0000000   -0.0000529    0.0001777   -0.0000000    0.0006886
 61   AU2 f+2       0.0000000   -0.0005620   -0.0001672   -0.0000000   -0.0007052
 62   AU2 f-2       0.0000000   -0.0000000    0.0000000   -0.0000000   -0.0000000
 63   AU2 f+3       0.0004144   -0.0000000   -0.0000000    0.0052945    0.0000000
 64   AU2 f-3      -0.0000000    0.0002048   -0.0006883   -0.0000000   -0.0026671

            Ene    -2.7218217   -2.7211375   -2.7211372   -0.5159243   -0.4908692
            Sym             A            A            A            A            A
            Occ             2            2            2            2            2


                           11           12           13           14           15

 1    AU1 s0        0.0000000    0.0000004   -0.0000000    0.0000005   -0.0000001
 2    AU1 s0       -0.0000001   -0.0000009    0.0000001   -0.0000013    0.0000001
 3    AU1 s0        0.0000001    0.0000016   -0.0000002    0.0000021   -0.0000002
 4    AU1 s0        0.0000001    0.0000002   -0.0000000    0.0000010   -0.0000001
 5    AU1 s0       -0.0000002   -0.0000030    0.0000004   -0.0000046    0.0000005
 6    AU1 s0       -0.0000000   -0.0000008    0.0000001   -0.0000005    0.0000000
 7    AU1 p0        0.0143245    0.0000000    0.0000001    0.0000000    0.0000001
 8    AU1 p+1      -0.0000000   -0.0000012    0.0000001   -0.0000013    0.0000001
 9    AU1 p-1      -0.0046386    0.0000001   -0.0000000    0.0000002   -0.0000000
 10   AU1 p0       -0.0026549   -0.0000000   -0.0000001   -0.0000000   -0.0000001
 11   AU1 p+1       0.0000000    0.0000009   -0.0000001    0.0000004   -0.0000000
 12   AU1 p-1       0.0008597   -0.0000001    0.0000000   -0.0000001    0.0000000
 13   AU1 p0       -0.0070823   -0.0000000   -0.0000001   -0.0000001   -0.0000002
 14   AU1 p+1       0.0000001    0.0000014   -0.0000002    0.0000016   -0.0000002
 15   AU1 p-1       0.0022934   -0.0000003    0.0000000   -0.0000003    0.0000000
 16   AU1 d0       -0.0000001    0.4822686    0.2384106    0.4877259    0.2503787
 17   AU1 d+1      -0.5751046    0.0000001    0.0000010    0.0000000   -0.0000003
 18   AU1 d-1      -0.0000004   -0.2752923    0.5568799   -0.2891130    0.5631715
 19   AU1 d+2      -0.0000001    0.2784461    0.1376454    0.2815770    0.1445575
 20   AU1 d-2       0.1862316    0.0000010   -0.0000005   -0.0000002    0.0000002
 21   AU1 d0        0.0000000    0.1172154    0.0579459    0.1177181    0.0604317
 22   AU1 d+1      -0.1382116    0.0000000    0.0000002   -0.0000000   -0.0000001
 23   AU1 d-1      -0.0000001   -0.0669100    0.1353500   -0.0697807    0.1359278
 24   AU1 d+2      -0.0000000    0.0676769    0.0334547    0.0679617    0.0348906
 25   AU1 d-2       0.0447560    0.0000002   -0.0000001   -0.0000001    0.0000001
 26   AU1 f0        0.0016868   -0.0000000    0.0000000   -0.0000000    0.0000000
 27   AU1 f+1       0.0000000   -0.0011200   -0.0005536   -0.0032817   -0.0016847
 28   AU1 f-1      -0.0002230   -0.0000000   -0.0000000   -0.0000000   -0.0000000
 29   AU1 f+2      -0.0021777   -0.0000000   -0.0000000   -0.0000000    0.0000000
 30   AU1 f-2       0.0000000    0.0007003   -0.0014166    0.0021310   -0.0041510
 31   AU1 f+3       0.0000000   -0.0008674   -0.0004289   -0.0025418   -0.0013050
 32   AU1 f-3       0.0008637   -0.0000000    0.0000000   -0.0000000   -0.0000000
 33   AU2 s0       -0.0000000    0.0000004   -0.0000000   -0.0000005    0.0000001
 34   AU2 s0        0.0000001   -0.0000009    0.0000001    0.0000013   -0.0000001
 35   AU2 s0       -0.0000001    0.0000016   -0.0000002   -0.0000021    0.0000002
 36   AU2 s0       -0.0000001    0.0000002   -0.0000000   -0.0000010    0.0000001
 37   AU2 s0        0.0000002   -0.0000030    0.0000004    0.0000046   -0.0000005
 38   AU2 s0        0.0000000   -0.0000008    0.0000001    0.0000005   -0.0000000
 39   AU2 p0        0.0143245   -0.0000000   -0.0000001    0.0000000    0.0000001
 40   AU2 p+1      -0.0000000    0.0000012   -0.0000001   -0.0000013    0.0000001
 41   AU2 p-1      -0.0046386   -0.0000001    0.0000000    0.0000002   -0.0000000
 42   AU2 p0       -0.0026549    0.0000000    0.0000001   -0.0000000   -0.0000001
 43   AU2 p+1       0.0000000   -0.0000009    0.0000001    0.0000004   -0.0000000
 44   AU2 p-1       0.0008597    0.0000001   -0.0000000   -0.0000001    0.0000000
 45   AU2 p0       -0.0070823    0.0000000    0.0000001   -0.0000001   -0.0000002
 46   AU2 p+1       0.0000001   -0.0000014    0.0000002    0.0000016   -0.0000002
 47   AU2 p-1       0.0022934    0.0000003   -0.0000000   -0.0000003    0.0000000
 48   AU2 d0        0.0000001    0.4822686    0.2384106   -0.4877259   -0.2503787
 49   AU2 d+1       0.5751046    0.0000001    0.0000010   -0.0000000    0.0000003
 50   AU2 d-1       0.0000004   -0.2752923    0.5568799    0.2891130   -0.5631715
 51   AU2 d+2       0.0000001    0.2784461    0.1376454   -0.2815770   -0.1445575
 52   AU2 d-2      -0.1862316    0.0000010   -0.0000005    0.0000002   -0.0000002
 53   AU2 d0       -0.0000000    0.1172154    0.0579459   -0.1177181   -0.0604317
 54   AU2 d+1       0.1382116    0.0000000    0.0000002    0.0000000    0.0000001
 55   AU2 d-1       0.0000001   -0.0669100    0.1353500    0.0697807   -0.1359278
 56   AU2 d+2       0.0000000    0.0676769    0.0334547   -0.0679617   -0.0348906
 57   AU2 d-2      -0.0447560    0.0000002   -0.0000001    0.0000001   -0.0000001
 58   AU2 f0        0.0016868    0.0000000   -0.0000000   -0.0000000    0.0000000
 59   AU2 f+1       0.0000000    0.0011200    0.0005536   -0.0032817   -0.0016847
 60   AU2 f-1      -0.0002230    0.0000000    0.0000000   -0.0000000   -0.0000000
 61   AU2 f+2      -0.0021777    0.0000000    0.0000000   -0.0000000    0.0000000
 62   AU2 f-2       0.0000000   -0.0007003    0.0014166    0.0021310   -0.0041510
 63   AU2 f+3       0.0000000    0.0008674    0.0004289   -0.0025418   -0.0013050
 64   AU2 f-3       0.0008637    0.0000000   -0.0000000   -0.0000000   -0.0000000

            Ene    -0.4908691   -0.4526516   -0.4526516   -0.4389478   -0.4389478
            Sym             A            A            A            A            A
            Occ             2            2            2            2            2


                           16           17           18           19           20

 1    AU1 s0        0.0000000   -0.0000000    0.0252307    0.0931589    0.0674871
 2    AU1 s0       -0.0000001    0.0000001   -0.0644947   -0.2379214   -0.1724422
 3    AU1 s0        0.0000001   -0.0000001    0.1005815    0.3576223    0.2618037
 4    AU1 s0        0.0000000   -0.0000000    0.0234334    0.1252498    0.0881179
 5    AU1 s0       -0.0000001    0.0000002   -0.0858964   -0.3917887   -0.2209596
 6    AU1 s0       -0.0000000    0.0000001   -0.2326146   -0.2776133   -0.3688395
 7    AU1 p0        0.0075195    0.0249394    0.0000000    0.0000000   -0.0000000
 8    AU1 p+1      -0.0000000    0.0000001    0.0370747    0.0713184   -0.0885694
 9    AU1 p-1       0.0249394   -0.0075195    0.0000000    0.0000000   -0.0000000
 10   AU1 p0       -0.0024616   -0.0081642   -0.0000000   -0.0000000    0.0000000
 11   AU1 p+1       0.0000000   -0.0000001   -0.0045006   -0.0272619    0.0075852
 12   AU1 p-1      -0.0081643    0.0024616   -0.0000000   -0.0000000   -0.0000000
 13   AU1 p0       -0.0067169   -0.0222777   -0.0000000   -0.0000001   -0.0000000
 14   AU1 p+1       0.0000001   -0.0000001   -0.1208080   -0.0708727    0.3906417
 15   AU1 p-1      -0.0222775    0.0067170   -0.0000001    0.0000000    0.0000001
 16   AU1 d0       -0.0000006   -0.0000002   -0.3146737   -0.0553483    0.0515262
 17   AU1 d+1       0.1865382    0.6186748   -0.0000000    0.0000001    0.0000001
 18   AU1 d-1       0.0000005   -0.0000010   -0.0000048    0.0000015    0.0000026
 19   AU1 d+2      -0.0000005   -0.0000002    0.5450453    0.0958616   -0.0892541
 20   AU1 d-2       0.6186750   -0.1865381   -0.0000001   -0.0000001   -0.0000001
 21   AU1 d0       -0.0000001   -0.0000001   -0.0743065   -0.0077516    0.0217822
 22   AU1 d+1       0.0475340    0.1576521   -0.0000000    0.0000000    0.0000001
 23   AU1 d-1       0.0000002   -0.0000003   -0.0000013    0.0000007    0.0000010
 24   AU1 d+2      -0.0000002   -0.0000000    0.1287065    0.0134238   -0.0377310
 25   AU1 d-2       0.1576518   -0.0475341   -0.0000001   -0.0000000   -0.0000001
 26   AU1 f0        0.0014592    0.0048396    0.0000000    0.0000000    0.0000000
 27   AU1 f+1       0.0000000   -0.0000000    0.0056270    0.0023646   -0.0012369
 28   AU1 f-1       0.0019757   -0.0005957    0.0000000    0.0000000    0.0000000
 29   AU1 f+2      -0.0018838   -0.0062478    0.0000000    0.0000000    0.0000000
 30   AU1 f-2      -0.0000000   -0.0000000    0.0000000    0.0000001   -0.0000000
 31   AU1 f+3       0.0000000   -0.0000000   -0.0072645   -0.0030529    0.0015968
 32   AU1 f-3      -0.0076520    0.0023072   -0.0000000    0.0000000   -0.0000000
 33   AU2 s0        0.0000000   -0.0000000   -0.0252307    0.0931589   -0.0674871
 34   AU2 s0       -0.0000001    0.0000001    0.0644947   -0.2379214    0.1724422
 35   AU2 s0        0.0000001   -0.0000001   -0.1005815    0.3576223   -0.2618037
 36   AU2 s0        0.0000000   -0.0000000   -0.0234334    0.1252498   -0.0881179
 37   AU2 s0       -0.0000001    0.0000002    0.0858964   -0.3917887    0.2209596
 38   AU2 s0       -0.0000000    0.0000001    0.2326146   -0.2776133    0.3688395
 39   AU2 p0       -0.0075195   -0.0249394    0.0000000   -0.0000000   -0.0000000
 40   AU2 p+1       0.0000000   -0.0000001    0.0370747   -0.0713184   -0.0885694
 41   AU2 p-1      -0.0249394    0.0075195    0.0000000   -0.0000000   -0.0000000
 42   AU2 p0        0.0024616    0.0081642   -0.0000000    0.0000000    0.0000000
 43   AU2 p+1      -0.0000000    0.0000001   -0.0045006    0.0272619    0.0075852
 44   AU2 p-1       0.0081643   -0.0024616   -0.0000000    0.0000000   -0.0000000
 45   AU2 p0        0.0067169    0.0222777   -0.0000000    0.0000001   -0.0000000
 46   AU2 p+1      -0.0000001    0.0000001   -0.1208080    0.0708727    0.3906417
 47   AU2 p-1       0.0222775   -0.0067170   -0.0000001   -0.0000000    0.0000001
 48   AU2 d0       -0.0000006   -0.0000002    0.3146737   -0.0553483   -0.0515262
 49   AU2 d+1       0.1865382    0.6186748    0.0000000    0.0000001   -0.0000001
 50   AU2 d-1       0.0000005   -0.0000010    0.0000048    0.0000015   -0.0000026
 51   AU2 d+2      -0.0000005   -0.0000002   -0.5450453    0.0958616    0.0892541
 52   AU2 d-2       0.6186750   -0.1865381    0.0000001   -0.0000001    0.0000001
 53   AU2 d0       -0.0000001   -0.0000001    0.0743065   -0.0077516   -0.0217822
 54   AU2 d+1       0.0475340    0.1576521    0.0000000    0.0000000   -0.0000001
 55   AU2 d-1       0.0000002   -0.0000003    0.0000013    0.0000007   -0.0000010
 56   AU2 d+2      -0.0000002   -0.0000000   -0.1287065    0.0134238    0.0377310
 57   AU2 d-2       0.1576518   -0.0475341    0.0000001   -0.0000000    0.0000001
 58   AU2 f0       -0.0014592   -0.0048396    0.0000000   -0.0000000    0.0000000
 59   AU2 f+1      -0.0000000    0.0000000    0.0056270   -0.0023646   -0.0012369
 60   AU2 f-1      -0.0019757    0.0005957    0.0000000   -0.0000000    0.0000000
 61   AU2 f+2       0.0018838    0.0062478    0.0000000   -0.0000000    0.0000000
 62   AU2 f-2       0.0000000    0.0000000    0.0000000   -0.0000001   -0.0000000
 63   AU2 f+3      -0.0000000    0.0000000   -0.0072645    0.0030529    0.0015968
 64   AU2 f-3       0.0076520   -0.0023072   -0.0000000   -0.0000000   -0.0000000

            Ene    -0.4182852   -0.4182849   -0.4038432   -0.2913646   -0.0072746
            Sym             A            A            A            A            A
            Occ             2            2            2            2            0


                           21           22           23           24           25

 1    AU1 s0       -0.0000000    0.0000000    0.0095169   -0.0000000   -0.0000000
 2    AU1 s0        0.0000000   -0.0000000   -0.0245370    0.0000000    0.0000000
 3    AU1 s0       -0.0000000    0.0000000    0.0255460   -0.0000000    0.0000000
 4    AU1 s0       -0.0000000    0.0000000    0.0613231    0.0000000   -0.0000000
 5    AU1 s0        0.0000001   -0.0000001   -0.2134966   -0.0000001    0.0000000
 6    AU1 s0       -0.0000001    0.0000005    0.5092805    0.0000002   -0.0000002
 7    AU1 p0        0.1287254    0.0386578   -0.0000000    0.0980927    0.0287660
 8    AU1 p+1       0.0000000   -0.0000000    0.1471477    0.0000000   -0.0000001
 9    AU1 p-1      -0.0386577    0.1287255    0.0000000   -0.0287659    0.0980930
 10   AU1 p0       -0.0108222   -0.0032500   -0.0000000    0.0199814    0.0058595
 11   AU1 p+1      -0.0000000    0.0000000    0.0005778   -0.0000000    0.0000000
 12   AU1 p-1       0.0032500   -0.0108222    0.0000000   -0.0058596    0.0199812
 13   AU1 p0       -0.5493287   -0.1649697    0.0000001   -1.0509700   -0.3081992
 14   AU1 p+1      -0.0000001    0.0000003   -0.7151227   -0.0000002    0.0000003
 15   AU1 p-1       0.1649697   -0.5493287   -0.0000005    0.3081992   -1.0509699
 16   AU1 d0       -0.0000000   -0.0000003   -0.0026634    0.0000000   -0.0000001
 17   AU1 d+1       0.0393758    0.0118249   -0.0000001   -0.0967473   -0.0283713
 18   AU1 d-1      -0.0000002    0.0000001   -0.0000006   -0.0000001    0.0000000
 19   AU1 d+2      -0.0000001   -0.0000003    0.0046152   -0.0000000   -0.0000000
 20   AU1 d-2      -0.0118250    0.0393753    0.0000001    0.0283714   -0.0967471
 21   AU1 d0       -0.0000000   -0.0000001   -0.0036569    0.0000000   -0.0000001
 22   AU1 d+1       0.0249292    0.0074865   -0.0000000   -0.0543829   -0.0159479
 23   AU1 d-1      -0.0000000    0.0000001   -0.0000002    0.0000000    0.0000000
 24   AU1 d+2      -0.0000000   -0.0000001    0.0063346    0.0000000   -0.0000000
 25   AU1 d-2      -0.0074865    0.0249292    0.0000000    0.0159479   -0.0543828
 26   AU1 f0        0.0013743    0.0004127    0.0000000   -0.0032867   -0.0009638
 27   AU1 f+1       0.0000000    0.0000000    0.0002165   -0.0000000   -0.0000000
 28   AU1 f-1      -0.0001685    0.0005611    0.0000000    0.0003934   -0.0013418
 29   AU1 f+2      -0.0017742   -0.0005328    0.0000000    0.0042432    0.0012444
 30   AU1 f-2       0.0000000   -0.0000000   -0.0000000    0.0000000   -0.0000000
 31   AU1 f+3       0.0000000    0.0000000   -0.0002794    0.0000000   -0.0000000
 32   AU1 f-3       0.0006526   -0.0021729    0.0000000   -0.0015240    0.0051969
 33   AU2 s0        0.0000000   -0.0000000    0.0095169   -0.0000000   -0.0000000
 34   AU2 s0       -0.0000000    0.0000000   -0.0245370    0.0000000    0.0000000
 35   AU2 s0        0.0000000   -0.0000000    0.0255460   -0.0000000    0.0000000
 36   AU2 s0        0.0000000   -0.0000000    0.0613231    0.0000000   -0.0000000
 37   AU2 s0       -0.0000001    0.0000001   -0.2134966   -0.0000001    0.0000000
 38   AU2 s0        0.0000001   -0.0000005    0.5092805    0.0000002   -0.0000002
 39   AU2 p0        0.1287254    0.0386578    0.0000000   -0.0980927   -0.0287660
 40   AU2 p+1       0.0000000   -0.0000000   -0.1471477   -0.0000000    0.0000001
 41   AU2 p-1      -0.0386577    0.1287255   -0.0000000    0.0287659   -0.0980930
 42   AU2 p0       -0.0108222   -0.0032500    0.0000000   -0.0199814   -0.0058595
 43   AU2 p+1      -0.0000000    0.0000000   -0.0005778    0.0000000   -0.0000000
 44   AU2 p-1       0.0032500   -0.0108222   -0.0000000    0.0058596   -0.0199812
 45   AU2 p0       -0.5493287   -0.1649697   -0.0000001    1.0509700    0.3081992
 46   AU2 p+1      -0.0000001    0.0000003    0.7151227    0.0000002   -0.0000003
 47   AU2 p-1       0.1649697   -0.5493287    0.0000005   -0.3081992    1.0509699
 48   AU2 d0        0.0000000    0.0000003   -0.0026634    0.0000000   -0.0000001
 49   AU2 d+1      -0.0393758   -0.0118249   -0.0000001   -0.0967473   -0.0283713
 50   AU2 d-1       0.0000002   -0.0000001   -0.0000006   -0.0000001    0.0000000
 51   AU2 d+2       0.0000001    0.0000003    0.0046152   -0.0000000   -0.0000000
 52   AU2 d-2       0.0118250   -0.0393753    0.0000001    0.0283714   -0.0967471
 53   AU2 d0        0.0000000    0.0000001   -0.0036569    0.0000000   -0.0000001
 54   AU2 d+1      -0.0249292   -0.0074865   -0.0000000   -0.0543829   -0.0159479
 55   AU2 d-1       0.0000000   -0.0000001   -0.0000002    0.0000000    0.0000000
 56   AU2 d+2       0.0000000    0.0000001    0.0063346    0.0000000   -0.0000000
 57   AU2 d-2       0.0074865   -0.0249292    0.0000000    0.0159479   -0.0543828
 58   AU2 f0        0.0013743    0.0004127   -0.0000000    0.0032867    0.0009638
 59   AU2 f+1       0.0000000    0.0000000   -0.0002165    0.0000000    0.0000000
 60   AU2 f-1      -0.0001685    0.0005611   -0.0000000   -0.0003934    0.0013418
 61   AU2 f+2      -0.0017742   -0.0005328   -0.0000000   -0.0042432   -0.0012444
 62   AU2 f-2       0.0000000   -0.0000000    0.0000000   -0.0000000    0.0000000
 63   AU2 f+3       0.0000000    0.0000000    0.0002794   -0.0000000    0.0000000
 64   AU2 f-3       0.0006526   -0.0021729   -0.0000000    0.0015240   -0.0051969

            Ene     0.0683082    0.0683085    0.0925126    0.1415084    0.1415084
            Sym             A            A            A            A            A
            Occ             0            0            0            0            0


                           26           27           28           29           30

 1    AU1 s0        0.0436071    0.0615349    0.0733987    0.0000000   -0.0000001
 2    AU1 s0       -0.1118296   -0.1584020   -0.1890266   -0.0000001    0.0000003
 3    AU1 s0        0.1498018    0.1562952    0.1834913    0.0000002   -0.0000004
 4    AU1 s0        0.1445931    0.4269894    0.5280381   -0.0000000    0.0000000
 5    AU1 s0       -0.1192193   -1.6756432   -2.0607660    0.0000001   -0.0000002
 6    AU1 s0       -4.9679666    1.0919655    4.2798479   -0.0000002    0.0000005
 7    AU1 p0        0.0000000   -0.0000000   -0.0000000   -0.0000000    0.0000000
 8    AU1 p+1      -0.0130442   -0.0212658   -0.0649275    0.0000003   -0.0000008
 9    AU1 p-1       0.0000000   -0.0000000   -0.0000000    0.0000000    0.0000000
 10   AU1 p0       -0.0000000   -0.0000000    0.0000000    0.0000000   -0.0000000
 11   AU1 p+1       0.0117170   -0.0460566    0.0430354   -0.0000003    0.0000008
 12   AU1 p-1       0.0000000    0.0000000    0.0000000   -0.0000000   -0.0000000
 13   AU1 p0       -0.0000000    0.0000000   -0.0000000   -0.0000001    0.0000000
 14   AU1 p+1      -3.4286578    0.3375054    1.6191595    0.0000001   -0.0000002
 15   AU1 p-1      -0.0000000    0.0000000    0.0000000    0.0000001    0.0000001
 16   AU1 d0        0.0763996   -0.0501002    0.0004392    0.0815850    0.4046613
 17   AU1 d+1       0.0000000    0.0000000    0.0000000   -0.0000000   -0.0000000
 18   AU1 d-1       0.0000006    0.0000003    0.0000006    0.4672623   -0.0942064
 19   AU1 d+2      -0.1323298    0.0867750   -0.0007624    0.0471034    0.2336306
 20   AU1 d-2       0.0000000   -0.0000000   -0.0000000   -0.0000000   -0.0000000
 21   AU1 d0        0.1606088   -0.0213708    0.0089208   -0.1218182   -0.6042183
 22   AU1 d+1       0.0000000    0.0000000    0.0000000   -0.0000001    0.0000000
 23   AU1 d-1       0.0000005    0.0000002    0.0000004   -0.6976905    0.1406638
 24   AU1 d+2      -0.2781842    0.0370146   -0.0154527   -0.0703323   -0.3488443
 25   AU1 d-2       0.0000000   -0.0000001   -0.0000000    0.0000001    0.0000000
 26   AU1 f0        0.0000000   -0.0000000    0.0000000    0.0000000   -0.0000000
 27   AU1 f+1       0.0007043    0.0059347   -0.0038633   -0.0020575   -0.0102051
 28   AU1 f-1       0.0000000   -0.0000000    0.0000000   -0.0000000   -0.0000000
 29   AU1 f+2       0.0000000    0.0000000    0.0000000    0.0000000   -0.0000000
 30   AU1 f-2      -0.0000000    0.0000000   -0.0000000   -0.0129086    0.0026025
 31   AU1 f+3      -0.0009092   -0.0076618    0.0049875   -0.0015937   -0.0079048
 32   AU1 f-3       0.0000000   -0.0000000   -0.0000000    0.0000000   -0.0000000
 33   AU2 s0       -0.0436071    0.0615349   -0.0733987    0.0000000   -0.0000001
 34   AU2 s0        0.1118296   -0.1584020    0.1890266   -0.0000001    0.0000003
 35   AU2 s0       -0.1498018    0.1562952   -0.1834913    0.0000002   -0.0000004
 36   AU2 s0       -0.1445931    0.4269894   -0.5280381   -0.0000000    0.0000000
 37   AU2 s0        0.1192193   -1.6756432    2.0607660    0.0000001   -0.0000002
 38   AU2 s0        4.9679666    1.0919655   -4.2798479   -0.0000002    0.0000005
 39   AU2 p0        0.0000000    0.0000000   -0.0000000    0.0000000   -0.0000000
 40   AU2 p+1      -0.0130442    0.0212658   -0.0649275   -0.0000003    0.0000008
 41   AU2 p-1       0.0000000    0.0000000   -0.0000000   -0.0000000   -0.0000000
 42   AU2 p0       -0.0000000    0.0000000    0.0000000   -0.0000000    0.0000000
 43   AU2 p+1       0.0117170    0.0460566    0.0430354    0.0000003   -0.0000008
 44   AU2 p-1       0.0000000   -0.0000000    0.0000000    0.0000000    0.0000000
 45   AU2 p0       -0.0000000   -0.0000000   -0.0000000    0.0000001   -0.0000000
 46   AU2 p+1      -3.4286578   -0.3375054    1.6191595   -0.0000001    0.0000002
 47   AU2 p-1      -0.0000000   -0.0000000    0.0000000   -0.0000001   -0.0000001
 48   AU2 d0       -0.0763996   -0.0501002   -0.0004392    0.0815850    0.4046613
 49   AU2 d+1      -0.0000000    0.0000000   -0.0000000   -0.0000000   -0.0000000
 50   AU2 d-1      -0.0000006    0.0000003   -0.0000006    0.4672623   -0.0942064
 51   AU2 d+2       0.1323298    0.0867750    0.0007624    0.0471034    0.2336306
 52   AU2 d-2      -0.0000000   -0.0000000    0.0000000   -0.0000000   -0.0000000
 53   AU2 d0       -0.1606088   -0.0213708   -0.0089208   -0.1218182   -0.6042183
 54   AU2 d+1      -0.0000000    0.0000000   -0.0000000   -0.0000001    0.0000000
 55   AU2 d-1      -0.0000005    0.0000002   -0.0000004   -0.6976905    0.1406638
 56   AU2 d+2       0.2781842    0.0370146    0.0154527   -0.0703323   -0.3488443
 57   AU2 d-2      -0.0000000   -0.0000001    0.0000000    0.0000001    0.0000000
 58   AU2 f0        0.0000000    0.0000000    0.0000000   -0.0000000    0.0000000
 59   AU2 f+1       0.0007043   -0.0059347   -0.0038633    0.0020575    0.0102051
 60   AU2 f-1       0.0000000    0.0000000    0.0000000    0.0000000    0.0000000
 61   AU2 f+2       0.0000000   -0.0000000    0.0000000   -0.0000000    0.0000000
 62   AU2 f-2      -0.0000000   -0.0000000   -0.0000000    0.0129086   -0.0026025
 63   AU2 f+3      -0.0009092    0.0076618    0.0049875    0.0015937    0.0079048
 64   AU2 f-3       0.0000000    0.0000000   -0.0000000   -0.0000000    0.0000000

            Ene     0.2107425    0.2598015    0.3221177    0.5941463    0.5941463
            Sym             A            A            A            A            A
            Occ             0            0            0            0            0


                           31           32           33           34           35

 1    AU1 s0        0.0000000   -0.0000000    0.0337866   -0.0000004   -0.0000004
 2    AU1 s0       -0.0000000    0.0000001   -0.0865264    0.0000009    0.0000010
 3    AU1 s0        0.0000001   -0.0000001    0.1980332   -0.0000019   -0.0000021
 4    AU1 s0       -0.0000000    0.0000001   -0.1749592    0.0000011    0.0000012
 5    AU1 s0       -0.0000001    0.0000000   -0.0261313    0.0000012    0.0000013
 6    AU1 s0        0.0000012   -0.0000022    3.9975060   -0.0000304   -0.0000337
 7    AU1 p0        0.1197185    0.0358460   -0.0000000    0.0000001   -0.0000000
 8    AU1 p+1       0.0000000   -0.0000001    0.1665041   -0.0000013   -0.0000014
 9    AU1 p-1      -0.0358460    0.1197184    0.0000001   -0.0000000    0.0000000
 10   AU1 p0       -0.1356209   -0.0406074    0.0000000   -0.0000001   -0.0000000
 11   AU1 p+1       0.0000000   -0.0000000   -0.0016545    0.0000001    0.0000001
 12   AU1 p-1       0.0406075   -0.1356207   -0.0000001    0.0000000   -0.0000001
 13   AU1 p0        0.1207577    0.0361571   -0.0000000    0.0000001    0.0000000
 14   AU1 p+1       0.0000007   -0.0000014    2.5308583   -0.0000190   -0.0000210
 15   AU1 p-1      -0.0361572    0.1207576    0.0000001   -0.0000000    0.0000001
 16   AU1 d0        0.0000001   -0.0000002    0.2227140    0.0604978    0.4091786
 17   AU1 d+1       0.4823116    0.1444132   -0.0000001    0.0000002   -0.0000001
 18   AU1 d-1       0.0000001   -0.0000000   -0.0000029   -0.4724811    0.0698590
 19   AU1 d+2      -0.0000001    0.0000001   -0.3857433    0.0349327    0.2362441
 20   AU1 d-2      -0.1444133    0.4823113    0.0000003   -0.0000002    0.0000000
 21   AU1 d0       -0.0000002    0.0000003   -0.6083430   -0.1075913   -0.7277043
 22   AU1 d+1      -0.6197453   -0.1855636    0.0000001   -0.0000003    0.0000001
 23   AU1 d-1      -0.0000004    0.0000001    0.0000055    0.8402865   -0.1242411
 24   AU1 d+2       0.0000003   -0.0000006    1.0536643   -0.0621286   -0.4201521
 25   AU1 d-2       0.1855636   -0.6197454   -0.0000004    0.0000002   -0.0000000
 26   AU1 f0        0.0086030    0.0025759    0.0000000   -0.0000000   -0.0000000
 27   AU1 f+1       0.0000000    0.0000000   -0.0132728    0.0020722    0.0140145
 28   AU1 f-1      -0.0010516    0.0035122    0.0000000    0.0000000   -0.0000000
 29   AU1 f+2      -0.0111065   -0.0033255    0.0000000   -0.0000000   -0.0000000
 30   AU1 f-2       0.0000000   -0.0000000   -0.0000002   -0.0177270    0.0026210
 31   AU1 f+3       0.0000000    0.0000000    0.0171355    0.0016049    0.0108554
 32   AU1 f-3       0.0040729   -0.0136027   -0.0000000   -0.0000000   -0.0000000
 33   AU2 s0       -0.0000000    0.0000000   -0.0337866    0.0000004    0.0000004
 34   AU2 s0        0.0000000   -0.0000001    0.0865264   -0.0000009   -0.0000010
 35   AU2 s0       -0.0000001    0.0000001   -0.1980332    0.0000019    0.0000021
 36   AU2 s0        0.0000000   -0.0000001    0.1749592   -0.0000011   -0.0000012
 37   AU2 s0        0.0000001   -0.0000000    0.0261313   -0.0000012   -0.0000013
 38   AU2 s0       -0.0000012    0.0000022   -3.9975060    0.0000304    0.0000337
 39   AU2 p0        0.1197185    0.0358460   -0.0000000    0.0000001   -0.0000000
 40   AU2 p+1       0.0000000   -0.0000001    0.1665041   -0.0000013   -0.0000014
 41   AU2 p-1      -0.0358460    0.1197184    0.0000001   -0.0000000    0.0000000
 42   AU2 p0       -0.1356209   -0.0406074    0.0000000   -0.0000001   -0.0000000
 43   AU2 p+1       0.0000000   -0.0000000   -0.0016545    0.0000001    0.0000001
 44   AU2 p-1       0.0406075   -0.1356207   -0.0000001    0.0000000   -0.0000001
 45   AU2 p0        0.1207577    0.0361571   -0.0000000    0.0000001    0.0000000
 46   AU2 p+1       0.0000007   -0.0000014    2.5308583   -0.0000190   -0.0000210
 47   AU2 p-1      -0.0361572    0.1207576    0.0000001   -0.0000000    0.0000001
 48   AU2 d0       -0.0000001    0.0000002   -0.2227140   -0.0604978   -0.4091786
 49   AU2 d+1      -0.4823116   -0.1444132    0.0000001   -0.0000002    0.0000001
 50   AU2 d-1      -0.0000001    0.0000000    0.0000029    0.4724811   -0.0698590
 51   AU2 d+2       0.0000001   -0.0000001    0.3857433   -0.0349327   -0.2362441
 52   AU2 d-2       0.1444133   -0.4823113   -0.0000003    0.0000002   -0.0000000
 53   AU2 d0        0.0000002   -0.0000003    0.6083430    0.1075913    0.7277043
 54   AU2 d+1       0.6197453    0.1855636   -0.0000001    0.0000003   -0.0000001
 55   AU2 d-1       0.0000004   -0.0000001   -0.0000055   -0.8402865    0.1242411
 56   AU2 d+2      -0.0000003    0.0000006   -1.0536643    0.0621286    0.4201521
 57   AU2 d-2      -0.1855636    0.6197454    0.0000004   -0.0000002    0.0000000
 58   AU2 f0        0.0086030    0.0025759    0.0000000   -0.0000000   -0.0000000
 59   AU2 f+1       0.0000000    0.0000000   -0.0132728    0.0020722    0.0140145
 60   AU2 f-1      -0.0010516    0.0035122    0.0000000    0.0000000   -0.0000000
 61   AU2 f+2      -0.0111065   -0.0033255    0.0000000   -0.0000000   -0.0000000
 62   AU2 f-2       0.0000000   -0.0000000   -0.0000002   -0.0177270    0.0026210
 63   AU2 f+3       0.0000000    0.0000000    0.0171355    0.0016049    0.0108554
 64   AU2 f-3       0.0040729   -0.0136027   -0.0000000   -0.0000000   -0.0000000

            Ene     0.6322622    0.6322625    0.6709876    0.6929843    0.6929843
            Sym             A            A            A            A            A
            Occ             0            0            0            0            0


                           36           37           38           39           40

 1    AU1 s0       -0.0000000    0.0000000    0.0012442    0.0164585   -0.0000000
 2    AU1 s0        0.0000000   -0.0000000   -0.0034011   -0.0424222    0.0000000
 3    AU1 s0       -0.0000000    0.0000000   -0.0437814    0.0975080   -0.0000000
 4    AU1 s0        0.0000001    0.0000000    0.1906461   -0.1083489    0.0000000
 5    AU1 s0       -0.0000001   -0.0000001   -0.6068314    0.5702714    0.0000000
 6    AU1 s0        0.0000001    0.0000001    0.3274469   -0.2022233    0.0000000
 7    AU1 p0        0.1680063    0.0499816   -0.0000000    0.0000000    0.6870354
 8    AU1 p+1      -0.0000001   -0.0000000   -0.4453052   -0.5373412   -0.0000000
 9    AU1 p-1      -0.0499815    0.1680066   -0.0000000    0.0000000   -0.2041610
 10   AU1 p0       -0.2222630   -0.0661229    0.0000001   -0.0000000   -1.0217969
 11   AU1 p+1       0.0000002   -0.0000000    0.4870093    0.9899161    0.0000000
 12   AU1 p-1       0.0661228   -0.2222634    0.0000000   -0.0000000    0.3036396
 13   AU1 p0        0.6752923    0.2008980   -0.0000002   -0.0000000    0.2793103
 14   AU1 p+1      -0.0000001    0.0000000   -0.0743482   -0.6082502    0.0000000
 15   AU1 p-1      -0.2008980    0.6752924   -0.0000000    0.0000001   -0.0830005
 16   AU1 d0        0.0000001   -0.0000000    0.2214120   -0.1677151   -0.0000000
 17   AU1 d+1      -0.4333368   -0.1289167    0.0000002    0.0000000   -0.0971559
 18   AU1 d-1       0.0000001   -0.0000000    0.0000008    0.0000001   -0.0000000
 19   AU1 d+2      -0.0000001   -0.0000000   -0.3834994    0.2904907   -0.0000000
 20   AU1 d-2       0.1289168   -0.4333366   -0.0000000   -0.0000000    0.0288711
 21   AU1 d0       -0.0000001   -0.0000000   -0.3125800    0.3721625   -0.0000000
 22   AU1 d+1       1.1053149    0.3288287   -0.0000003   -0.0000000    0.1596896
 23   AU1 d-1      -0.0000001    0.0000000   -0.0000006    0.0000000   -0.0000000
 24   AU1 d+2       0.0000001    0.0000001    0.5414063   -0.6446045    0.0000000
 25   AU1 d-2      -0.3288288    1.1053148    0.0000000    0.0000000   -0.0474537
 26   AU1 f0        0.0225449    0.0067071   -0.0000000   -0.0000000    0.0245119
 27   AU1 f+1      -0.0000000   -0.0000000    0.0016712   -0.0742461    0.0000000
 28   AU1 f-1      -0.0027382    0.0092039    0.0000000   -0.0000000   -0.0029737
 29   AU1 f+2      -0.0291052   -0.0086587    0.0000000    0.0000000   -0.0316447
 30   AU1 f-2      -0.0000000    0.0000000   -0.0000000    0.0000001    0.0000000
 31   AU1 f+3       0.0000000   -0.0000000   -0.0021574    0.0958512   -0.0000000
 32   AU1 f-3       0.0106047   -0.0356464    0.0000000   -0.0000000    0.0115170
 33   AU2 s0       -0.0000000    0.0000000    0.0012442    0.0164585    0.0000000
 34   AU2 s0        0.0000000   -0.0000000   -0.0034011   -0.0424222   -0.0000000
 35   AU2 s0       -0.0000000    0.0000000   -0.0437814    0.0975080    0.0000000
 36   AU2 s0        0.0000001    0.0000000    0.1906461   -0.1083489   -0.0000000
 37   AU2 s0       -0.0000001   -0.0000001   -0.6068314    0.5702714   -0.0000000
 38   AU2 s0        0.0000001    0.0000001    0.3274469   -0.2022233   -0.0000000
 39   AU2 p0       -0.1680063   -0.0499816    0.0000000   -0.0000000    0.6870354
 40   AU2 p+1       0.0000001    0.0000000    0.4453052    0.5373412   -0.0000000
 41   AU2 p-1       0.0499815   -0.1680066    0.0000000   -0.0000000   -0.2041610
 42   AU2 p0        0.2222630    0.0661229   -0.0000001    0.0000000   -1.0217969
 43   AU2 p+1      -0.0000002    0.0000000   -0.4870093   -0.9899161    0.0000000
 44   AU2 p-1      -0.0661228    0.2222634   -0.0000000    0.0000000    0.3036396
 45   AU2 p0       -0.6752923   -0.2008980    0.0000002    0.0000000    0.2793103
 46   AU2 p+1       0.0000001   -0.0000000    0.0743482    0.6082502    0.0000000
 47   AU2 p-1       0.2008980   -0.6752924    0.0000000   -0.0000001   -0.0830005
 48   AU2 d0        0.0000001   -0.0000000    0.2214120   -0.1677151    0.0000000
 49   AU2 d+1      -0.4333368   -0.1289167    0.0000002    0.0000000    0.0971559
 50   AU2 d-1       0.0000001   -0.0000000    0.0000008    0.0000001    0.0000000
 51   AU2 d+2      -0.0000001   -0.0000000   -0.3834994    0.2904907    0.0000000
 52   AU2 d-2       0.1289168   -0.4333366   -0.0000000   -0.0000000   -0.0288711
 53   AU2 d0       -0.0000001   -0.0000000   -0.3125800    0.3721625    0.0000000
 54   AU2 d+1       1.1053149    0.3288287   -0.0000003   -0.0000000   -0.1596896
 55   AU2 d-1      -0.0000001    0.0000000   -0.0000006    0.0000000    0.0000000
 56   AU2 d+2       0.0000001    0.0000001    0.5414063   -0.6446045   -0.0000000
 57   AU2 d-2      -0.3288288    1.1053148    0.0000000    0.0000000    0.0474537
 58   AU2 f0       -0.0225449   -0.0067071    0.0000000    0.0000000    0.0245119
 59   AU2 f+1       0.0000000    0.0000000   -0.0016712    0.0742461    0.0000000
 60   AU2 f-1       0.0027382   -0.0092039   -0.0000000    0.0000000   -0.0029737
 61   AU2 f+2       0.0291052    0.0086587   -0.0000000   -0.0000000   -0.0316447
 62   AU2 f-2       0.0000000   -0.0000000    0.0000000   -0.0000001    0.0000000
 63   AU2 f+3      -0.0000000    0.0000000    0.0021574   -0.0958512   -0.0000000
 64   AU2 f-3      -0.0106047    0.0356464   -0.0000000    0.0000000    0.0115170

            Ene     0.7728913    0.7728916    0.7986252    0.9766637    1.0282878
            Sym             A            A            A            A            A
            Occ             0            0            0            0            0


                           41           42           43           44           45

 1    AU1 s0        0.0000000   -0.0000000    0.0000000    0.0625023   -0.0000000
 2    AU1 s0       -0.0000000    0.0000000   -0.0000000   -0.1618279    0.0000000
 3    AU1 s0        0.0000000   -0.0000000    0.0000000    0.3706509   -0.0000000
 4    AU1 s0       -0.0000000   -0.0000000    0.0000000   -0.2004108   -0.0000000
 5    AU1 s0       -0.0000000    0.0000000   -0.0000001   -0.2073130    0.0000000
 6    AU1 s0        0.0000001   -0.0000000    0.0000000   -1.6569501   -0.0000000
 7    AU1 p0        0.2041611    0.6911976    0.2002017    0.0000000    0.0566775
 8    AU1 p+1       0.0000000    0.0000000   -0.0000000    0.6970965    0.0000000
 9    AU1 p-1       0.6870355   -0.2002017    0.6911976   -0.0000000   -0.0168460
 10   AU1 p0       -0.3036396   -1.0187721   -0.2950818   -0.0000000   -0.0837966
 11   AU1 p+1      -0.0000000   -0.0000000   -0.0000000   -1.1775354   -0.0000000
 12   AU1 p-1      -1.0217969    0.2950819   -1.0187720    0.0000000    0.0249065
 13   AU1 p0        0.0830005    0.2741324    0.0794010    0.0000000    0.0243019
 14   AU1 p+1       0.0000000    0.0000000    0.0000000   -0.9345704   -0.0000000
 15   AU1 p-1       0.2793104   -0.0794010    0.2741324   -0.0000000   -0.0072231
 16   AU1 d0       -0.0000001   -0.0000000   -0.0000000   -0.0521606    0.0000000
 17   AU1 d+1      -0.0288711    0.1167865    0.0338266   -0.0000000    0.0121863
 18   AU1 d-1       0.0000000   -0.0000001    0.0000000   -0.0000001   -0.0000000
 19   AU1 d+2      -0.0000000   -0.0000000   -0.0000000    0.0903450   -0.0000000
 20   AU1 d-2      -0.0971559   -0.0338266    0.1167866   -0.0000000   -0.0036221
 21   AU1 d0        0.0000000   -0.0000000   -0.0000000    0.3360077   -0.0000000
 22   AU1 d+1       0.0474537   -0.3357237   -0.0972407    0.0000000   -0.0437834
 23   AU1 d-1      -0.0000000   -0.0000000   -0.0000000    0.0000001   -0.0000000
 24   AU1 d+2       0.0000000   -0.0000000    0.0000000   -0.5819826   -0.0000000
 25   AU1 d-2       0.1596894    0.0972406   -0.3357241   -0.0000000    0.0130136
 26   AU1 f0        0.0072840   -0.0393382   -0.0113941    0.0000000   -0.4102145
 27   AU1 f+1      -0.0000000    0.0000000    0.0000000   -0.1801890   -0.0000000
 28   AU1 f-1       0.0100070    0.0046516   -0.0160597    0.0000000    0.0497773
 29   AU1 f+2      -0.0094036    0.0507854    0.0147097    0.0000000    0.5295832
 30   AU1 f-2      -0.0000000    0.0000000   -0.0000000    0.0000001    0.0000001
 31   AU1 f+3       0.0000000   -0.0000000    0.0000000    0.2326227   -0.0000000
 32   AU1 f-3      -0.0387566   -0.0180157    0.0621992    0.0000000   -0.1927821
 33   AU2 s0       -0.0000000   -0.0000000    0.0000000   -0.0625023    0.0000000
 34   AU2 s0        0.0000000    0.0000000   -0.0000000    0.1618279   -0.0000000
 35   AU2 s0       -0.0000000   -0.0000000    0.0000000   -0.3706509    0.0000000
 36   AU2 s0        0.0000000   -0.0000000    0.0000000    0.2004108    0.0000000
 37   AU2 s0        0.0000000    0.0000000   -0.0000001    0.2073130   -0.0000000
 38   AU2 s0       -0.0000001   -0.0000000    0.0000000    1.6569501    0.0000000
 39   AU2 p0        0.2041611   -0.6911976   -0.2002017    0.0000000    0.0566775
 40   AU2 p+1       0.0000000   -0.0000000    0.0000000    0.6970965    0.0000000
 41   AU2 p-1       0.6870355    0.2002017   -0.6911976   -0.0000000   -0.0168460
 42   AU2 p0       -0.3036396    1.0187721    0.2950818   -0.0000000   -0.0837966
 43   AU2 p+1      -0.0000000    0.0000000    0.0000000   -1.1775354   -0.0000000
 44   AU2 p-1      -1.0217969   -0.2950819    1.0187720    0.0000000    0.0249065
 45   AU2 p0        0.0830005   -0.2741324   -0.0794010    0.0000000    0.0243019
 46   AU2 p+1       0.0000000   -0.0000000   -0.0000000   -0.9345704   -0.0000000
 47   AU2 p-1       0.2793104    0.0794010   -0.2741324   -0.0000000   -0.0072231
 48   AU2 d0        0.0000001   -0.0000000   -0.0000000    0.0521606   -0.0000000
 49   AU2 d+1       0.0288711    0.1167865    0.0338266    0.0000000   -0.0121863
 50   AU2 d-1      -0.0000000   -0.0000001    0.0000000    0.0000001    0.0000000
 51   AU2 d+2       0.0000000   -0.0000000   -0.0000000   -0.0903450    0.0000000
 52   AU2 d-2       0.0971559   -0.0338266    0.1167866    0.0000000    0.0036221
 53   AU2 d0       -0.0000000   -0.0000000   -0.0000000   -0.3360077    0.0000000
 54   AU2 d+1      -0.0474537   -0.3357237   -0.0972407   -0.0000000    0.0437834
 55   AU2 d-1       0.0000000   -0.0000000   -0.0000000   -0.0000001    0.0000000
 56   AU2 d+2      -0.0000000   -0.0000000    0.0000000    0.5819826    0.0000000
 57   AU2 d-2      -0.1596894    0.0972406   -0.3357241    0.0000000   -0.0130136
 58   AU2 f0        0.0072840    0.0393382    0.0113941    0.0000000   -0.4102145
 59   AU2 f+1      -0.0000000   -0.0000000   -0.0000000   -0.1801890   -0.0000000
 60   AU2 f-1       0.0100070   -0.0046516    0.0160597    0.0000000    0.0497773
 61   AU2 f+2      -0.0094036   -0.0507854   -0.0147097    0.0000000    0.5295832
 62   AU2 f-2      -0.0000000   -0.0000000    0.0000000    0.0000001    0.0000001
 63   AU2 f+3       0.0000000    0.0000000   -0.0000000    0.2326227   -0.0000000
 64   AU2 f-3      -0.0387566    0.0180157   -0.0621992    0.0000000   -0.1927821

            Ene     1.0282880    1.0976858    1.0976859    1.5147726    1.7727514
            Sym             A            A            A            A            A
            Occ             0            0            0            0            0


                           46           47           48           49           50

 1    AU1 s0        0.0000000    0.0334474   -0.0000002    0.0000000    0.0000000
 2    AU1 s0       -0.0000000   -0.0863108    0.0000004   -0.0000001   -0.0000000
 3    AU1 s0        0.0000000    0.2562715   -0.0000013    0.0000002    0.0000000
 4    AU1 s0       -0.0000000   -0.3206079    0.0000017   -0.0000002   -0.0000000
 5    AU1 s0        0.0000000    0.3679479   -0.0000019    0.0000003    0.0000000
 6    AU1 s0        0.0000000   -0.1499077    0.0000007   -0.0000001   -0.0000000
 7    AU1 p0        0.0168460   -0.0000000    0.0000000   -0.0000000    0.0000000
 8    AU1 p+1      -0.0000000   -0.1417767    0.0000007   -0.0000001   -0.0000000
 9    AU1 p-1       0.0566773    0.0000000   -0.0000000    0.0000000    0.0000000
 10   AU1 p0       -0.0249065    0.0000000   -0.0000000    0.0000000   -0.0000001
 11   AU1 p+1       0.0000000    0.2697410   -0.0000013    0.0000002   -0.0000000
 12   AU1 p-1      -0.0837965   -0.0000000    0.0000000   -0.0000000   -0.0000000
 13   AU1 p0        0.0072231   -0.0000000   -0.0000000    0.0000000    0.0000001
 14   AU1 p+1       0.0000000   -0.1816538    0.0000009   -0.0000001   -0.0000000
 15   AU1 p-1       0.0243019    0.0000000   -0.0000000   -0.0000000    0.0000000
 16   AU1 d0       -0.0000000   -0.0481005    0.0146623    0.0070466    0.0000000
 17   AU1 d+1       0.0036221    0.0000000    0.0000000    0.0000000    0.0000001
 18   AU1 d-1      -0.0000000   -0.0000001   -0.0081367    0.0169303   -0.0000000
 19   AU1 d+2       0.0000000    0.0833127    0.0084648    0.0040684    0.0000000
 20   AU1 d-2       0.0121863    0.0000000   -0.0000000    0.0000000    0.0000000
 21   AU1 d0       -0.0000000    0.0846610   -0.0273919   -0.0131644   -0.0000000
 22   AU1 d+1      -0.0130136    0.0000000   -0.0000000    0.0000000   -0.0000002
 23   AU1 d-1       0.0000000    0.0000001    0.0152009   -0.0316291   -0.0000000
 24   AU1 d+2      -0.0000000   -0.1466376   -0.0158139   -0.0076005   -0.0000000
 25   AU1 d-2      -0.0437834   -0.0000000    0.0000000   -0.0000000   -0.0000000
 26   AU1 f0       -0.1219272   -0.0000000   -0.0000001   -0.0000002    0.4903194
 27   AU1 f+1      -0.0000000    0.4176141    0.5028221    0.2416578   -0.0000004
 28   AU1 f-1      -0.1674700    0.0000000    0.0000003   -0.0000001   -0.3286111
 29   AU1 f+2       0.1574055    0.0000000   -0.0000001   -0.0000002    0.3798016
 30   AU1 f-2      -0.0000000   -0.0000020   -0.3056752    0.6360279   -0.0000001
 31   AU1 f+3      -0.0000000   -0.5391325    0.3894887    0.1871867   -0.0000003
 32   AU1 f-3       0.6486047   -0.0000000    0.0000001   -0.0000001   -0.0848469
 33   AU2 s0       -0.0000000    0.0334474   -0.0000002    0.0000000   -0.0000000
 34   AU2 s0        0.0000000   -0.0863108    0.0000004   -0.0000001    0.0000000
 35   AU2 s0       -0.0000000    0.2562715   -0.0000013    0.0000002   -0.0000000
 36   AU2 s0        0.0000000   -0.3206079    0.0000017   -0.0000002    0.0000000
 37   AU2 s0       -0.0000000    0.3679479   -0.0000019    0.0000003   -0.0000000
 38   AU2 s0       -0.0000000   -0.1499077    0.0000007   -0.0000001    0.0000000
 39   AU2 p0        0.0168460    0.0000000   -0.0000000    0.0000000    0.0000000
 40   AU2 p+1      -0.0000000    0.1417767   -0.0000007    0.0000001   -0.0000000
 41   AU2 p-1       0.0566773   -0.0000000    0.0000000   -0.0000000    0.0000000
 42   AU2 p0       -0.0249065   -0.0000000    0.0000000   -0.0000000   -0.0000001
 43   AU2 p+1       0.0000000   -0.2697410    0.0000013   -0.0000002   -0.0000000
 44   AU2 p-1      -0.0837965    0.0000000   -0.0000000    0.0000000   -0.0000000
 45   AU2 p0        0.0072231    0.0000000    0.0000000   -0.0000000    0.0000001
 46   AU2 p+1       0.0000000    0.1816538   -0.0000009    0.0000001   -0.0000000
 47   AU2 p-1       0.0243019   -0.0000000    0.0000000    0.0000000    0.0000000
 48   AU2 d0        0.0000000   -0.0481005    0.0146623    0.0070466   -0.0000000
 49   AU2 d+1      -0.0036221    0.0000000    0.0000000    0.0000000   -0.0000001
 50   AU2 d-1       0.0000000   -0.0000001   -0.0081367    0.0169303    0.0000000
 51   AU2 d+2      -0.0000000    0.0833127    0.0084648    0.0040684   -0.0000000
 52   AU2 d-2      -0.0121863    0.0000000   -0.0000000    0.0000000   -0.0000000
 53   AU2 d0        0.0000000    0.0846610   -0.0273919   -0.0131644    0.0000000
 54   AU2 d+1       0.0130136    0.0000000   -0.0000000    0.0000000    0.0000002
 55   AU2 d-1      -0.0000000    0.0000001    0.0152009   -0.0316291    0.0000000
 56   AU2 d+2       0.0000000   -0.1466376   -0.0158139   -0.0076005    0.0000000
 57   AU2 d-2       0.0437834   -0.0000000    0.0000000   -0.0000000    0.0000000
 58   AU2 f0       -0.1219272    0.0000000    0.0000001    0.0000002    0.4903194
 59   AU2 f+1      -0.0000000   -0.4176141   -0.5028221   -0.2416578   -0.0000004
 60   AU2 f-1      -0.1674700   -0.0000000   -0.0000003    0.0000001   -0.3286111
 61   AU2 f+2       0.1574055   -0.0000000    0.0000001    0.0000002    0.3798016
 62   AU2 f-2      -0.0000000    0.0000020    0.3056752   -0.6360279   -0.0000001
 63   AU2 f+3      -0.0000000    0.5391325   -0.3894887   -0.1871867   -0.0000003
 64   AU2 f-3       0.6486047    0.0000000   -0.0000001    0.0000001   -0.0848469

            Ene     1.7727518    1.7809347    1.8345289    1.8345289    1.8598629
            Sym             A            A            A            A            A
            Occ             0            0            0            0            0


                           51           52           53           54           55

 1    AU1 s0       -0.0000000   -0.0000000   -0.0000000   -0.0000002    0.0000000
 2    AU1 s0        0.0000000    0.0000000    0.0000000    0.0000005   -0.0000000
 3    AU1 s0       -0.0000000   -0.0000000   -0.0000000   -0.0000012    0.0000001
 4    AU1 s0       -0.0000000    0.0000000    0.0000000    0.0000010   -0.0000001
 5    AU1 s0        0.0000000   -0.0000000    0.0000000   -0.0000001    0.0000000
 6    AU1 s0       -0.0000000    0.0000000    0.0000000    0.0000023   -0.0000001
 7    AU1 p0       -0.0000000    0.0000000   -0.0000000   -0.0000000    0.0000000
 8    AU1 p+1      -0.0000000   -0.0000000   -0.0000000   -0.0000006    0.0000000
 9    AU1 p-1       0.0000000    0.0000000    0.0000000    0.0000000   -0.0000000
 10   AU1 p0        0.0000000   -0.0000001    0.0000000    0.0000000   -0.0000000
 11   AU1 p+1      -0.0000000   -0.0000000    0.0000000    0.0000011   -0.0000001
 12   AU1 p-1      -0.0000001   -0.0000000   -0.0000001   -0.0000000    0.0000000
 13   AU1 p0       -0.0000000   -0.0000002    0.0000000   -0.0000000   -0.0000000
 14   AU1 p+1      -0.0000000    0.0000000    0.0000000    0.0000012   -0.0000001
 15   AU1 p-1       0.0000001   -0.0000000   -0.0000002   -0.0000000   -0.0000000
 16   AU1 d0        0.0000000    0.0000000    0.0000000    0.0143536    0.0083453
 17   AU1 d+1      -0.0000000    0.0000001   -0.0000000    0.0000000   -0.0000000
 18   AU1 d-1       0.0000000   -0.0000000    0.0000000   -0.0096363    0.0165741
 19   AU1 d+2       0.0000000    0.0000000    0.0000000    0.0082869    0.0048181
 20   AU1 d-2       0.0000001    0.0000000    0.0000001    0.0000000    0.0000000
 21   AU1 d0        0.0000000   -0.0000000    0.0000000   -0.0404041   -0.0234910
 22   AU1 d+1       0.0000000   -0.0000005    0.0000001   -0.0000000   -0.0000000
 23   AU1 d-1      -0.0000000    0.0000000   -0.0000000    0.0271251   -0.0466541
 24   AU1 d+2      -0.0000000   -0.0000000   -0.0000000   -0.0233263   -0.0135626
 25   AU1 d-2      -0.0000002   -0.0000001   -0.0000005   -0.0000000    0.0000000
 26   AU1 f0        0.2683099    0.4991695    0.2518459   -0.0000001   -0.0000004
 27   AU1 f+1       0.0000001    0.0000002   -0.0000000   -0.4845595   -0.2817262
 28   AU1 f-1       0.6005168   -0.3084471    0.6113548    0.0000004   -0.0000002
 29   AU1 f+2       0.2078318    0.3866537    0.1950792   -0.0000002   -0.0000002
 30   AU1 f-2      -0.0000005    0.0000001    0.0000003    0.3563586   -0.6129242
 31   AU1 f+3       0.0000000    0.0000002   -0.0000000   -0.3753374   -0.2182242
 32   AU1 f-3       0.1550543   -0.0796408    0.1578501    0.0000001   -0.0000001
 33   AU2 s0        0.0000000   -0.0000000   -0.0000000    0.0000002   -0.0000000
 34   AU2 s0       -0.0000000    0.0000000    0.0000000   -0.0000005    0.0000000
 35   AU2 s0        0.0000000   -0.0000000   -0.0000000    0.0000012   -0.0000001
 36   AU2 s0        0.0000000    0.0000000    0.0000000   -0.0000010    0.0000001
 37   AU2 s0       -0.0000000   -0.0000000    0.0000000    0.0000001   -0.0000000
 38   AU2 s0        0.0000000    0.0000000    0.0000000   -0.0000023    0.0000001
 39   AU2 p0       -0.0000000   -0.0000000    0.0000000   -0.0000000    0.0000000
 40   AU2 p+1      -0.0000000    0.0000000    0.0000000   -0.0000006    0.0000000
 41   AU2 p-1       0.0000000   -0.0000000   -0.0000000    0.0000000   -0.0000000
 42   AU2 p0        0.0000000    0.0000001   -0.0000000    0.0000000   -0.0000000
 43   AU2 p+1      -0.0000000    0.0000000   -0.0000000    0.0000011   -0.0000001
 44   AU2 p-1      -0.0000001    0.0000000    0.0000001   -0.0000000    0.0000000
 45   AU2 p0       -0.0000000    0.0000002   -0.0000000   -0.0000000   -0.0000000
 46   AU2 p+1      -0.0000000   -0.0000000   -0.0000000    0.0000012   -0.0000001
 47   AU2 p-1       0.0000001    0.0000000    0.0000002   -0.0000000   -0.0000000
 48   AU2 d0       -0.0000000    0.0000000    0.0000000   -0.0143536   -0.0083453
 49   AU2 d+1       0.0000000    0.0000001   -0.0000000   -0.0000000    0.0000000
 50   AU2 d-1      -0.0000000   -0.0000000    0.0000000    0.0096363   -0.0165741
 51   AU2 d+2      -0.0000000    0.0000000    0.0000000   -0.0082869   -0.0048181
 52   AU2 d-2      -0.0000001    0.0000000    0.0000001   -0.0000000   -0.0000000
 53   AU2 d0       -0.0000000   -0.0000000    0.0000000    0.0404041    0.0234910
 54   AU2 d+1      -0.0000000   -0.0000005    0.0000001    0.0000000    0.0000000
 55   AU2 d-1       0.0000000    0.0000000   -0.0000000   -0.0271251    0.0466541
 56   AU2 d+2       0.0000000   -0.0000000   -0.0000000    0.0233263    0.0135626
 57   AU2 d-2       0.0000002   -0.0000001   -0.0000005    0.0000000   -0.0000000
 58   AU2 f0        0.2683099   -0.4991695   -0.2518459   -0.0000001   -0.0000004
 59   AU2 f+1       0.0000001   -0.0000002    0.0000000   -0.4845595   -0.2817262
 60   AU2 f-1       0.6005168    0.3084471   -0.6113548    0.0000004   -0.0000002
 61   AU2 f+2       0.2078318   -0.3866537   -0.1950792   -0.0000002   -0.0000002
 62   AU2 f-2      -0.0000005   -0.0000001   -0.0000003    0.3563586   -0.6129242
 63   AU2 f+3       0.0000000   -0.0000002    0.0000000   -0.3753374   -0.2182242
 64   AU2 f-3       0.1550543    0.0796408   -0.1578501    0.0000001   -0.0000001

            Ene     1.8598629    1.8631690    1.8631690    1.8787366    1.8787366
            Sym             A            A            A            A            A
            Occ             0            0            0            0            0


                           56           57           58           59           60

 1    AU1 s0        0.0000000   -0.0000000    0.2151078    0.3670281    0.2955165
 2    AU1 s0       -0.0000000    0.0000000   -0.5603958   -0.9573381   -0.7715931
 3    AU1 s0        0.0000000   -0.0000000    1.5450395    2.7149939    2.2870734
 4    AU1 s0       -0.0000000    0.0000000   -1.5878582   -2.9420786   -2.7311979
 5    AU1 s0        0.0000000   -0.0000000    0.6428508    1.3154337    1.7894739
 6    AU1 s0       -0.0000000    0.0000000   -1.4663024   -0.4552709   -0.2783013
 7    AU1 p0        0.0809500    0.0240823    0.0000000   -0.0000000   -0.0000000
 8    AU1 p+1      -0.0000000    0.0000000    0.2704709    0.0254602   -0.4188698
 9    AU1 p-1      -0.0240823    0.0809501   -0.0000000   -0.0000000   -0.0000000
 10   AU1 p0       -0.1221320   -0.0363338   -0.0000000    0.0000000    0.0000000
 11   AU1 p+1       0.0000000   -0.0000000   -0.4641645   -0.0887095    0.7810902
 12   AU1 p-1       0.0363338   -0.1221320    0.0000000    0.0000000    0.0000000
 13   AU1 p0       -0.1143498   -0.0340186   -0.0000000    0.0000000   -0.0000000
 14   AU1 p+1      -0.0000000   -0.0000000   -0.6884757    0.0007773    0.2658761
 15   AU1 p-1       0.0340186   -0.1143498    0.0000000   -0.0000000    0.0000000
 16   AU1 d0       -0.0000000   -0.0000000   -0.0202357    0.0250514   -0.0030981
 17   AU1 d+1       0.0645001    0.0191885    0.0000000    0.0000000    0.0000000
 18   AU1 d-1      -0.0000000    0.0000000    0.0000000    0.0000001    0.0000001
 19   AU1 d+2       0.0000000   -0.0000000    0.0350492   -0.0433905    0.0053658
 20   AU1 d-2      -0.0191885    0.0645001    0.0000000   -0.0000000   -0.0000000
 21   AU1 d0        0.0000000    0.0000000    0.1777396   -0.0177062   -0.2115815
 22   AU1 d+1      -0.2631586   -0.0782887    0.0000000    0.0000000    0.0000000
 23   AU1 d-1       0.0000000   -0.0000000    0.0000000    0.0000000    0.0000000
 24   AU1 d+2      -0.0000000    0.0000000   -0.3078541    0.0306680    0.3664700
 25   AU1 d-2       0.0782887   -0.2631586   -0.0000000   -0.0000000   -0.0000000
 26   AU1 f0        0.4223207    0.1256383   -0.0000000   -0.0000000    0.0000000
 27   AU1 f+1      -0.0000000   -0.0000000    0.3469252   -0.0347078   -0.2312990
 28   AU1 f-1      -0.0512911    0.1724113   -0.0000000    0.0000000    0.0000000
 29   AU1 f+2      -0.5452147   -0.1621996   -0.0000000    0.0000000    0.0000000
 30   AU1 f-2       0.0000000   -0.0000000    0.0000004   -0.0000000   -0.0000001
 31   AU1 f+3      -0.0000000   -0.0000000   -0.4478795    0.0448076    0.2986059
 32   AU1 f-3       0.1986528   -0.6677486    0.0000000   -0.0000000   -0.0000000
 33   AU2 s0        0.0000000   -0.0000000   -0.2151078    0.3670281   -0.2955165
 34   AU2 s0       -0.0000000    0.0000000    0.5603958   -0.9573381    0.7715931
 35   AU2 s0        0.0000000   -0.0000000   -1.5450395    2.7149939   -2.2870734
 36   AU2 s0       -0.0000000    0.0000000    1.5878582   -2.9420786    2.7311979
 37   AU2 s0        0.0000000   -0.0000000   -0.6428508    1.3154337   -1.7894739
 38   AU2 s0       -0.0000000    0.0000000    1.4663024   -0.4552709    0.2783013
 39   AU2 p0       -0.0809500   -0.0240823    0.0000000    0.0000000   -0.0000000
 40   AU2 p+1       0.0000000   -0.0000000    0.2704709   -0.0254602   -0.4188698
 41   AU2 p-1       0.0240823   -0.0809501   -0.0000000    0.0000000   -0.0000000
 42   AU2 p0        0.1221320    0.0363338   -0.0000000   -0.0000000    0.0000000
 43   AU2 p+1      -0.0000000    0.0000000   -0.4641645    0.0887095    0.7810902
 44   AU2 p-1      -0.0363338    0.1221320    0.0000000   -0.0000000    0.0000000
 45   AU2 p0        0.1143498    0.0340186   -0.0000000   -0.0000000   -0.0000000
 46   AU2 p+1       0.0000000    0.0000000   -0.6884757   -0.0007773    0.2658761
 47   AU2 p-1      -0.0340186    0.1143498    0.0000000    0.0000000    0.0000000
 48   AU2 d0       -0.0000000   -0.0000000    0.0202357    0.0250514    0.0030981
 49   AU2 d+1       0.0645001    0.0191885   -0.0000000    0.0000000   -0.0000000
 50   AU2 d-1      -0.0000000    0.0000000   -0.0000000    0.0000001   -0.0000001
 51   AU2 d+2       0.0000000   -0.0000000   -0.0350492   -0.0433905   -0.0053658
 52   AU2 d-2      -0.0191885    0.0645001   -0.0000000   -0.0000000    0.0000000
 53   AU2 d0        0.0000000    0.0000000   -0.1777396   -0.0177062    0.2115815
 54   AU2 d+1      -0.2631586   -0.0782887   -0.0000000    0.0000000   -0.0000000
 55   AU2 d-1       0.0000000   -0.0000000   -0.0000000    0.0000000   -0.0000000
 56   AU2 d+2      -0.0000000    0.0000000    0.3078541    0.0306680   -0.3664700
 57   AU2 d-2       0.0782887   -0.2631586    0.0000000   -0.0000000    0.0000000
 58   AU2 f0       -0.4223207   -0.1256383   -0.0000000    0.0000000    0.0000000
 59   AU2 f+1       0.0000000    0.0000000    0.3469252    0.0347078   -0.2312990
 60   AU2 f-1       0.0512911   -0.1724113   -0.0000000   -0.0000000    0.0000000
 61   AU2 f+2       0.5452147    0.1621996   -0.0000000   -0.0000000    0.0000000
 62   AU2 f-2      -0.0000000    0.0000000    0.0000004    0.0000000   -0.0000001
 63   AU2 f+3       0.0000000    0.0000000   -0.4478795   -0.0448076    0.2986059
 64   AU2 f-3      -0.1986528    0.6677486    0.0000000    0.0000000   -0.0000000

            Ene     1.9997703    1.9997707    2.1306373    2.2677689    2.4003185
            Sym             A            A            A            A            A
            Occ             0            0            0            0            0


                          61           62           63           64

 1    AU1 s0        1.9758967    1.9780177    1.7823479    1.7835509
 2    AU1 s0       -2.9669944   -2.9718530   -1.4117808   -1.4140390
 3    AU1 s0        1.5141722    1.5330574    0.5066541    0.5130491
 4    AU1 s0       -0.9748804   -1.0197504   -0.3146987   -0.3293009
 5    AU1 s0        0.3043366    0.3970821    0.0976825    0.1274379
 6    AU1 s0       -0.1039670   -0.2465571   -0.0334646   -0.0792836
 7    AU1 p0        0.0000000    0.0000000   -0.0000000   -0.0000000
 8    AU1 p+1       0.0017305   -0.0195656    0.0005558   -0.0061872
 9    AU1 p-1      -0.0000000   -0.0000000    0.0000000    0.0000000
 10   AU1 p0       -0.0000000   -0.0000000    0.0000000    0.0000000
 11   AU1 p+1      -0.0104907    0.0475467   -0.0033326    0.0151171
 12   AU1 p-1       0.0000000    0.0000000   -0.0000000   -0.0000000
 13   AU1 p0        0.0000000   -0.0000000    0.0000000   -0.0000000
 14   AU1 p+1      -0.0061253   -0.0447197   -0.0020204   -0.0143366
 15   AU1 p-1      -0.0000000    0.0000000    0.0000000    0.0000000
 16   AU1 d0        0.0026386   -0.0021270    0.0008301   -0.0006668
 17   AU1 d+1      -0.0000000   -0.0000000   -0.0000000   -0.0000000
 18   AU1 d-1      -0.0000000   -0.0000000   -0.0000000   -0.0000000
 19   AU1 d+2      -0.0045702    0.0036841   -0.0014379    0.0011550
 20   AU1 d-2       0.0000000    0.0000000    0.0000000    0.0000000
 21   AU1 d0        0.0002091   -0.0113459    0.0001099   -0.0036637
 22   AU1 d+1       0.0000000    0.0000000    0.0000000    0.0000000
 23   AU1 d-1       0.0000000    0.0000000    0.0000000    0.0000000
 24   AU1 d+2      -0.0003622    0.0196518   -0.0001904    0.0063456
 25   AU1 d-2      -0.0000000   -0.0000000   -0.0000000   -0.0000000
 26   AU1 f0       -0.0000000   -0.0000000   -0.0000000   -0.0000000
 27   AU1 f+1      -0.0003082   -0.0039275   -0.0000605   -0.0012475
 28   AU1 f-1      -0.0000000   -0.0000000    0.0000000    0.0000000
 29   AU1 f+2      -0.0000000   -0.0000000    0.0000000    0.0000000
 30   AU1 f-2      -0.0000000   -0.0000000    0.0000000    0.0000000
 31   AU1 f+3       0.0003979    0.0050704    0.0000782    0.0016105
 32   AU1 f-3      -0.0000000   -0.0000000   -0.0000000   -0.0000000
 33   AU2 s0        1.9758967   -1.9780177    1.7823479   -1.7835510
 34   AU2 s0       -2.9669944    2.9718530   -1.4117808    1.4140390
 35   AU2 s0        1.5141722   -1.5330574    0.5066541   -0.5130491
 36   AU2 s0       -0.9748804    1.0197504   -0.3146987    0.3293009
 37   AU2 s0        0.3043366   -0.3970821    0.0976825   -0.1274379
 38   AU2 s0       -0.1039670    0.2465571   -0.0334646    0.0792836
 39   AU2 p0       -0.0000000    0.0000000    0.0000000   -0.0000000
 40   AU2 p+1      -0.0017305   -0.0195656   -0.0005558   -0.0061872
 41   AU2 p-1       0.0000000   -0.0000000   -0.0000000    0.0000000
 42   AU2 p0        0.0000000   -0.0000000   -0.0000000    0.0000000
 43   AU2 p+1       0.0104907    0.0475467    0.0033326    0.0151171
 44   AU2 p-1      -0.0000000    0.0000000    0.0000000   -0.0000000
 45   AU2 p0       -0.0000000   -0.0000000   -0.0000000   -0.0000000
 46   AU2 p+1       0.0061253   -0.0447197    0.0020204   -0.0143366
 47   AU2 p-1       0.0000000    0.0000000   -0.0000000    0.0000000
 48   AU2 d0        0.0026386    0.0021270    0.0008301    0.0006668
 49   AU2 d+1      -0.0000000    0.0000000   -0.0000000    0.0000000
 50   AU2 d-1      -0.0000000    0.0000000   -0.0000000    0.0000000
 51   AU2 d+2      -0.0045702   -0.0036841   -0.0014379   -0.0011550
 52   AU2 d-2       0.0000000   -0.0000000    0.0000000   -0.0000000
 53   AU2 d0        0.0002091    0.0113459    0.0001099    0.0036637
 54   AU2 d+1       0.0000000   -0.0000000    0.0000000   -0.0000000
 55   AU2 d-1       0.0000000   -0.0000000    0.0000000   -0.0000000
 56   AU2 d+2      -0.0003622   -0.0196518   -0.0001904   -0.0063456
 57   AU2 d-2      -0.0000000    0.0000000   -0.0000000    0.0000000
 58   AU2 f0        0.0000000   -0.0000000    0.0000000   -0.0000000
 59   AU2 f+1       0.0003082   -0.0039275    0.0000605   -0.0012475
 60   AU2 f-1       0.0000000   -0.0000000   -0.0000000    0.0000000
 61   AU2 f+2       0.0000000   -0.0000000   -0.0000000    0.0000000
 62   AU2 f-2       0.0000000   -0.0000000   -0.0000000    0.0000000
 63   AU2 f+3      -0.0003979    0.0050704   -0.0000782    0.0016105
 64   AU2 f-3       0.0000000   -0.0000000    0.0000000   -0.0000000

            Ene    43.1045293   43.1384401  202.7300670  202.7476493
            Sym             A            A            A            A
            Occ             0            0            0            0


*** tstop() called on gpc-f104n084-ib0 at Sat Nov 18 22:51:16 2017
Module time:
	user time   =       5.37 seconds =       0.09 minutes
	system time =       0.07 seconds =       0.00 minutes
	total time  =          6 seconds =       0.10 minutes
Total time:
	user time   =       5.37 seconds =       0.09 minutes
	system time =       0.07 seconds =       0.00 minutes
	total time  =          6 seconds =       0.10 minutes

Reading options from the SYSHFWPLUG block
Calling plugin syshfwplug.so.


    Molecular point group: c1
    Full point group: D_inf_h

    Geometry (in Angstrom), charge = 0, multiplicity = 1:

       Center              X                  Y                   Z               Mass       
    ------------   -----------------  -----------------  -----------------  -----------------
          AU         -1.250000000000     0.000000000000     0.000000000000   196.966568662000
          AU          1.250000000000     0.000000000000     0.000000000000   196.966568662000


    Nuclear repulsion energy:      76.41318892


*** Psi4 exiting successfully. Buy a developer a beer!
