
    -----------------------------------------------------------------------
          Psi4: An Open-Source Ab Initio Electronic Structure Package
                               Psi4 1.2a1.dev547 

                         Git: Rev {master} f5560a0 


    R. M. Parrish, L. A. Burns, D. G. A. Smith, A. C. Simmonett,
    A. E. DePrince III, E. G. Hohenstein, U. Bozkaya, A. Yu. Sokolov,
    R. Di Remigio, R. M. Richard, J. F. Gonthier, A. M. James,
    H. R. McAlexander, A. Kumar, M. Saitow, X. Wang, B. P. Pritchard,
    P. Verma, H. F. Schaefer III, K. Patkowski, R. A. King, E. F. Valeev,
    F. A. Evangelista, J. M. Turney, T. D. Crawford, and C. D. Sherrill,
    J. Chem. Theory Comput. 13(7) pp 3185--3197 (2017).
    (doi: 10.1021/acs.jctc.7b00174)

    -----------------------------------------------------------------------


    Psi4 started on: Monday, 20 November 2017 11:03AM

    Process ID:  15062
    PSIDATADIR: /home/luke/Projects/psi4_build/psi_5/share/psi4
    Memory:     500.0 MiB
    Threads:    1
    
  ==> Input File <==

--------------------------------------------------------------------------

# PYTHONPATH must include directory above plugin directory.
#     Define either externally or here, then import plugin.
sys.path.insert(0, './..')
import syshfwplug


plugin_load("./syshfwplug.so")


molecule {
O  0.0 0.0 0.0 
H  1.0 1.0 0.0
H -1.0 1.0 0.0
symmetry c1
}

set {
  basis def2-qzvpp
}

set syshfwplug {
  pref mytest
  do_tei 1
  print 1
}

set scf reference uhf
set scf_type pk
set scf PRINT_MOS  true


e_scf,ref_wfn = energy('scf',return_wfn=True)

ref_wfn.Da().print_out()

plugin("syshfwplug.so", ref_wfn)
#syshfwplug.exampleFN(ref_wfn)
--------------------------------------------------------------------------
/home/luke/Projects/MP2-Project/src/syshfwplug/syshfwplug.so loaded.

*** tstart() called on luke-pc
*** at Mon Nov 20 11:03:16 2017

   => Loading Basis Set <=

    Name: DEF2-QZVPP
    Role: ORBITAL
    Keyword: BASIS
    atoms 1   entry O          line   290 file /home/luke/Projects/psi4_build/psi_5/share/psi4/basis/def2-qzvpp.gbs 
    atoms 2-3 entry H          line    15 file /home/luke/Projects/psi4_build/psi_5/share/psi4/basis/def2-qzvpp.gbs 

    There are an even number of electrons - assuming singlet.
    Specify the multiplicity in the molecule input block.


         ---------------------------------------------------------
                                   SCF
            by Justin Turney, Rob Parrish, Andy Simmonett
                             and Daniel Smith
                              UHF Reference
                        1 Threads,    500 MiB Core
         ---------------------------------------------------------

  ==> Geometry <==

    Molecular point group: c1
    Full point group: C2v

    Geometry (in Angstrom), charge = 0, multiplicity = 1:

       Center              X                  Y                   Z               Mass       
    ------------   -----------------  -----------------  -----------------  -----------------
           O          0.000000000000     0.000000000000    -0.111914873272    15.994914619560
           H          1.000000000000     0.000000000000     0.888085126728     1.007825032070
           H         -1.000000000000     0.000000000000     0.888085126728     1.007825032070

  Running in c1 symmetry.

  Rotational constants: A =      9.41731  B =      8.36337  C =      4.42955 [cm^-1]
  Rotational constants: A = 282323.78161  B = 250727.55137  C = 132794.62235 [MHz]
  Nuclear repulsion =    6.251545286588714

  Charge       = 0
  Multiplicity = 1
  Electrons    = 10
  Nalpha       = 5
  Nbeta        = 5

  ==> Algorithm <==

  SCF Algorithm Type is PK.
  DIIS enabled.
  MOM disabled.
  Fractional occupation disabled.
  Guess Type is GWH.
  Energy threshold   = 1.00e-06
  Density threshold  = 1.00e-06
  Integral threshold = 0.00e+00

  ==> Primary Basis <==

  Basis Set: DEF2-QZVPP
    Blend: DEF2-QZVPP
    Number of shells: 37
    Number of basis function: 117
    Number of Cartesian functions: 142
    Spherical Harmonics?: true
    Max angular momentum: 4

  ==> Pre-Iterations <==

   -------------------------------------------------------
    Irrep   Nso     Nmo     Nalpha   Nbeta   Ndocc  Nsocc
   -------------------------------------------------------
     A        117     117       0       0       0       0
   -------------------------------------------------------
    Total     117     117       5       5       5       0
   -------------------------------------------------------

  ==> Integral Setup <==

  Using integral reordering PK algorithm.
  Sizing the integral batches needed.
  Building batch lookup table.
   Calculation information:
      Number of atoms:                   3
      Number of AO shells:              37
      Number of primitives:             55
      Number of atomic orbitals:       142
      Number of basis functions:       117

      Integral cutoff                 1.00e-12
      Number of threads:                 1

	Batch   1 pq = [       0,    6903] index = [             0,23829156] size =     23829156
  Task number: 3
  Buffer size: 11059200
  Buffer per thread: 2
  We computed 288986 shell quartets total.
  Whereas there are 247456 unique shell quartets.
    16.78 percent of shell quartets recomputed by reordering.
  ==> DiskJK: Disk-Based J/K Matrices <==

    J tasked:                  Yes
    K tasked:                  Yes
    wK tasked:                  No
    Memory (MB):               375
    Schwarz Cutoff:          1E-12

    OpenMP threads:              1
  Minimum eigenvalue in the overlap matrix is 2.7558359837E-03.
  Using Symmetric Orthogonalization.

  SCF Guess: Generalized Wolfsberg-Helmholtz.

  ==> Iterations <==

                        Total Energy        Delta E     RMS |[F,P]|

   @UHF iter   1:   -54.24791102928426   -5.42479e+01   1.98639e-01 
   @UHF iter   2:   -64.09734348090095   -9.84943e+00   2.10328e-02 DIIS
   @UHF iter   3:   -69.69001902291100   -5.59268e+00   3.92756e-02 DIIS
   @UHF iter   4:   -72.47469215681346   -2.78467e+00   2.64427e-02 DIIS
   @UHF iter   5:   -74.87116151326909   -2.39647e+00   1.27728e-02 DIIS
   @UHF iter   6:   -75.72176895403881   -8.50607e-01   4.56057e-03 DIIS
   @UHF iter   7:   -75.86394931287498   -1.42180e-01   4.81720e-04 DIIS
   @UHF iter   8:   -75.86562144534689   -1.67213e-03   1.05324e-04 DIIS
   @UHF iter   9:   -75.86589236901472   -2.70924e-04   3.73570e-05 DIIS
   @UHF iter  10:   -75.86591446231743   -2.20933e-05   1.61888e-05 DIIS
   @UHF iter  11:   -75.86591777398836   -3.31167e-06   5.30303e-06 DIIS
   @UHF iter  12:   -75.86591855942883   -7.85440e-07   2.21294e-06 DIIS
   @UHF iter  13:   -75.86591868543768   -1.26009e-07   6.41138e-07 DIIS

  ==> Post-Iterations <==

   @Spin Contamination Metric:  -2.131628207E-14
   @S^2 Expected:                0.000000000E+00
   @S^2 Observed:               -2.131628207E-14
   @S   Expected:                0.000000000E+00
   @S   Observed:                0.000000000E+00

    Orbital Energies (a.u.)
    -----------------------

    Alpha Occupied:                                                       

       1A    -20.629883     2A     -1.228172     3A     -0.525463  
       4A     -0.515428     5A     -0.502544  

    Alpha Virtual:                                                        

       6A      0.046921     7A      0.087895     8A      0.274725  
       9A      0.304301    10A      0.377457    11A      0.380286  
      12A      0.464282    13A      0.516760    14A      0.614662  
      15A      0.632358    16A      0.767281    17A      0.786067  
      18A      0.918535    19A      0.941236    20A      1.159281  
      21A      1.201653    22A      1.377550    23A      1.402162  
      24A      1.424137    25A      1.512282    26A      1.607063  
      27A      1.614373    28A      1.887747    29A      1.905931  
      30A      1.974484    31A      2.013252    32A      2.163114  
      33A      2.186610    34A      2.350270    35A      2.351957  
      36A      2.368329    37A      2.422143    38A      2.501188  
      39A      2.534262    40A      2.561078    41A      2.631114  
      42A      2.734051    43A      2.929725    44A      2.966118  
      45A      3.040051    46A      3.556430    47A      3.596860  
      48A      3.814647    49A      3.837160    50A      3.842424  
      51A      3.914036    52A      4.224940    53A      4.274380  
      54A      4.394634    55A      4.405030    56A      4.434742  
      57A      4.587833    58A      4.619661    59A      5.373671  
      60A      5.378915    61A      5.433271    62A      5.961459  
      63A      6.003717    64A      6.006606    65A      6.028083  
      66A      6.033290    67A      6.071175    68A      6.086572  
      69A      6.250878    70A      6.254680    71A      6.277284  
      72A      6.607454    73A      6.643920    74A      6.684108  
      75A      6.955164    76A      7.086218    77A      7.137824  
      78A      7.793753    79A      7.811074    80A      7.833447  
      81A      7.944667    82A      8.069363    83A      8.099427  
      84A      8.195777    85A      8.196246    86A      8.375565  
      87A      8.434668    88A      8.451830    89A      8.459403  
      90A      8.467978    91A      8.865685    92A      9.200950  
      93A      9.238801    94A      9.447224    95A      9.455662  
      96A      9.494567    97A      9.631439    98A      9.968290  
      99A     10.015364   100A     10.139717   101A     10.280709  
     102A     10.668666   103A     11.619305   104A     11.805125  
     105A     11.864012   106A     11.894408   107A     12.056425  
     108A     12.293638   109A     12.624082   110A     12.645279  
     111A     12.688536   112A     12.711061   113A     12.925987  
     114A     13.470086   115A     14.036151   116A     48.515261  
     117A    255.244666  

    Beta Occupied:                                                        

       1A    -20.629883     2A     -1.228172     3A     -0.525463  
       4A     -0.515428     5A     -0.502544  

    Beta Virtual:                                                         

       6A      0.046921     7A      0.087895     8A      0.274725  
       9A      0.304301    10A      0.377457    11A      0.380286  
      12A      0.464282    13A      0.516760    14A      0.614662  
      15A      0.632358    16A      0.767281    17A      0.786067  
      18A      0.918535    19A      0.941236    20A      1.159281  
      21A      1.201653    22A      1.377550    23A      1.402162  
      24A      1.424137    25A      1.512282    26A      1.607063  
      27A      1.614373    28A      1.887747    29A      1.905931  
      30A      1.974484    31A      2.013252    32A      2.163114  
      33A      2.186610    34A      2.350270    35A      2.351957  
      36A      2.368329    37A      2.422143    38A      2.501188  
      39A      2.534262    40A      2.561078    41A      2.631114  
      42A      2.734051    43A      2.929725    44A      2.966118  
      45A      3.040051    46A      3.556430    47A      3.596860  
      48A      3.814647    49A      3.837160    50A      3.842424  
      51A      3.914036    52A      4.224940    53A      4.274380  
      54A      4.394634    55A      4.405030    56A      4.434742  
      57A      4.587833    58A      4.619661    59A      5.373671  
      60A      5.378915    61A      5.433271    62A      5.961459  
      63A      6.003717    64A      6.006606    65A      6.028083  
      66A      6.033290    67A      6.071175    68A      6.086572  
      69A      6.250878    70A      6.254680    71A      6.277284  
      72A      6.607454    73A      6.643920    74A      6.684108  
      75A      6.955164    76A      7.086218    77A      7.137824  
      78A      7.793753    79A      7.811074    80A      7.833447  
      81A      7.944667    82A      8.069363    83A      8.099427  
      84A      8.195777    85A      8.196246    86A      8.375565  
      87A      8.434668    88A      8.451830    89A      8.459403  
      90A      8.467978    91A      8.865685    92A      9.200950  
      93A      9.238801    94A      9.447224    95A      9.455662  
      96A      9.494567    97A      9.631439    98A      9.968290  
      99A     10.015364   100A     10.139717   101A     10.280709  
     102A     10.668666   103A     11.619305   104A     11.805125  
     105A     11.864012   106A     11.894408   107A     12.056425  
     108A     12.293638   109A     12.624082   110A     12.645279  
     111A     12.688536   112A     12.711061   113A     12.925987  
     114A     13.470086   115A     14.036151   116A     48.515261  
     117A    255.244666  

    Final Occupation by Irrep:
              A 
    DOCC [     5 ]
    SOCC [     0 ]

  Energy converged.

  @UHF Final Energy:   -75.86591868543768

   => Energetics <=

    Nuclear Repulsion Energy =              6.2515452865887138
    One-Electron Energy =                -117.4316235753810389
    Two-Electron Energy =                  35.3141596033546534
    Total Energy =                        -75.8659186854376770


  UHF NO Occupations:
  HONO-2 :    3  A 2.0000000
  HONO-1 :    4  A 2.0000000
  HONO-0 :    5  A 2.0000000
  LUNO+0 :    6  A 0.0000000
  LUNO+1 :    7  A 0.0000000
  LUNO+2 :    8  A 0.0000000
  LUNO+3 :    9  A 0.0000000



Properties will be evaluated at   0.000000,   0.000000,   0.000000 Bohr

Properties computed using the SCF density matrix

  Nuclear Dipole Moment: (a.u.)
     X:     0.0000      Y:     0.0000      Z:     1.6646

  Electronic Dipole Moment: (a.u.)
     X:     0.0000      Y:     0.0000      Z:    -0.6651

  Dipole Moment: (a.u.)
     X:     0.0000      Y:     0.0000      Z:     0.9994     Total:     0.9994

  Dipole Moment: (Debye)
     X:     0.0000      Y:     0.0000      Z:     2.5403     Total:     2.5403


  ==> Alpha-Spin Molecular Orbitals <==

                            1            2            3            4            5

 1    O1 s0         0.5606679    0.1229928   -0.0000000    0.0279851    0.0000000
 2    O1 s0         0.0000497    0.0188010   -0.0000000    0.0046532    0.0000000
 3    O1 s0         0.3664565    0.1535659   -0.0000000    0.0356656    0.0000000
 4    O1 s0         0.1623697    0.0724157   -0.0000000    0.0180801    0.0000000
 5    O1 s0         0.0113011   -0.3079538    0.0000000   -0.0871980   -0.0000000
 6    O1 s0        -0.0017067   -0.5331544   -0.0000000   -0.1295708   -0.0000000
 7    O1 s0         0.0008738   -0.2448341    0.0000000   -0.1467491   -0.0000000
 8    O1 p0         0.0017276   -0.0051010   -0.0000000    0.2609203    0.0000000
 9    O1 p+1        0.0000000    0.0000000    0.2613228    0.0000000   -0.0000000
 10   O1 p-1       -0.0000000   -0.0000000    0.0000000   -0.0000000    0.3597505
 11   O1 p0        -0.0014078   -0.0105406   -0.0000000    0.2619670    0.0000000
 12   O1 p+1        0.0000000    0.0000000    0.2607751    0.0000000   -0.0000000
 13   O1 p-1        0.0000000   -0.0000000    0.0000000   -0.0000000    0.3500261
 14   O1 p0         0.0006089   -0.0139746   -0.0000000    0.2419152    0.0000000
 15   O1 p+1       -0.0000000   -0.0000000    0.2534089   -0.0000000   -0.0000000
 16   O1 p-1       -0.0000000    0.0000000    0.0000000   -0.0000000    0.3319947
 17   O1 p0        -0.0000794    0.0004470   -0.0000000    0.1256183    0.0000000
 18   O1 p+1       -0.0000000   -0.0000000    0.1068400    0.0000000   -0.0000000
 19   O1 p-1        0.0000000   -0.0000000    0.0000000   -0.0000000    0.1782906
 20   O1 d0         0.0000431    0.0002333   -0.0000000    0.0015884   -0.0000000
 21   O1 d+1       -0.0000000   -0.0000000    0.0022805    0.0000000    0.0000000
 22   O1 d-1       -0.0000000   -0.0000000    0.0000000   -0.0000000    0.0014733
 23   O1 d+2        0.0000486    0.0004622   -0.0000000    0.0007186   -0.0000000
 24   O1 d-2        0.0000000   -0.0000000    0.0000000    0.0000000    0.0000000
 25   O1 d0        -0.0002238   -0.0008275   -0.0000000    0.0056623    0.0000000
 26   O1 d+1        0.0000000    0.0000000    0.0116335    0.0000000   -0.0000000
 27   O1 d-1        0.0000000    0.0000000    0.0000000    0.0000000    0.0040732
 28   O1 d+2       -0.0003225   -0.0017197   -0.0000000    0.0034622    0.0000000
 29   O1 d-2       -0.0000000    0.0000000    0.0000000   -0.0000000   -0.0000000
 30   O1 d0         0.0000526   -0.0016629   -0.0000000    0.0132586    0.0000000
 31   O1 d+1       -0.0000000   -0.0000000    0.0232111   -0.0000000    0.0000000
 32   O1 d-1       -0.0000000   -0.0000000    0.0000000   -0.0000000    0.0114927
 33   O1 d+2       -0.0000619   -0.0022536   -0.0000000    0.0067153   -0.0000000
 34   O1 d-2        0.0000000    0.0000000    0.0000000    0.0000000    0.0000000
 35   O1 f0        -0.0000160    0.0000282   -0.0000000    0.0003501   -0.0000000
 36   O1 f+1        0.0000000    0.0000000    0.0004842    0.0000000   -0.0000000
 37   O1 f-1        0.0000000    0.0000000    0.0000000    0.0000000    0.0007237
 38   O1 f+2        0.0000261   -0.0000338    0.0000000    0.0008519    0.0000000
 39   O1 f-2       -0.0000000   -0.0000000   -0.0000000   -0.0000000   -0.0000000
 40   O1 f+3        0.0000000   -0.0000000    0.0007104    0.0000000   -0.0000000
 41   O1 f-3        0.0000000    0.0000000   -0.0000000    0.0000000    0.0008840
 42   O1 f0         0.0000464    0.0004456   -0.0000000    0.0015779    0.0000000
 43   O1 f+1       -0.0000000   -0.0000000    0.0027345   -0.0000000    0.0000000
 44   O1 f-1        0.0000000    0.0000000    0.0000000    0.0000000    0.0025415
 45   O1 f+2       -0.0000962   -0.0022972   -0.0000000    0.0031629   -0.0000000
 46   O1 f-2        0.0000000    0.0000000    0.0000000    0.0000000    0.0000000
 47   O1 f+3       -0.0000000   -0.0000000    0.0034470   -0.0000000    0.0000000
 48   O1 f-3       -0.0000000    0.0000000    0.0000000    0.0000000    0.0032826
 49   O1 g0         0.0000179    0.0001702   -0.0000000   -0.0000220   -0.0000000
 50   O1 g+1       -0.0000000    0.0000000    0.0000434   -0.0000000   -0.0000000
 51   O1 g-1       -0.0000000    0.0000000   -0.0000000    0.0000000    0.0000669
 52   O1 g+2       -0.0000290   -0.0003243   -0.0000000    0.0003049   -0.0000000
 53   O1 g-2        0.0000000    0.0000000   -0.0000000    0.0000000   -0.0000000
 54   O1 g+3       -0.0000000   -0.0000000    0.0004195   -0.0000000   -0.0000000
 55   O1 g-3        0.0000000    0.0000000    0.0000000    0.0000000    0.0001915
 56   O1 g+4       -0.0000113   -0.0000818   -0.0000000    0.0000839   -0.0000000
 57   O1 g-4       -0.0000000   -0.0000000   -0.0000000   -0.0000000   -0.0000000
 58   H2 s0        -0.0000378   -0.0187775    0.0562651    0.0522218   -0.0000000
 59   H2 s0         0.0001202   -0.0387905    0.1168934    0.1081252   -0.0000000
 60   H2 s0         0.0000709   -0.0299257    0.1734717    0.1684069   -0.0000000
 61   H2 s0        -0.0000509   -0.0037867    0.0638446    0.0482608   -0.0000000
 62   H2 p0         0.0000719    0.0008093   -0.0014950    0.0002224    0.0000000
 63   H2 p+1        0.0000555    0.0009171   -0.0006627   -0.0013465   -0.0000000
 64   H2 p-1       -0.0000000   -0.0000000    0.0000000    0.0000000    0.0013296
 65   H2 p0        -0.0001925    0.0054888   -0.0077952   -0.0045762    0.0000000
 66   H2 p+1       -0.0001446    0.0054382   -0.0038122   -0.0070324    0.0000000
 67   H2 p-1       -0.0000000    0.0000000   -0.0000000   -0.0000000    0.0036180
 68   H2 p0        -0.0000321    0.0043749   -0.0188503    0.0010176    0.0000000
 69   H2 p+1       -0.0000062    0.0051291   -0.0084557   -0.0241716    0.0000000
 70   H2 p-1        0.0000000    0.0000000    0.0000000   -0.0000000    0.0191815
 71   H2 d0        -0.0000101   -0.0001338    0.0002904   -0.0000213   -0.0000000
 72   H2 d+1       -0.0000152   -0.0005267    0.0005945    0.0004390   -0.0000000
 73   H2 d-1       -0.0000000   -0.0000000   -0.0000000    0.0000000   -0.0001807
 74   H2 d+2       -0.0000078   -0.0002663    0.0001127    0.0000854   -0.0000000
 75   H2 d-2       -0.0000000   -0.0000000   -0.0000000   -0.0000000   -0.0000563
 76   H2 d0         0.0000939   -0.0005315    0.0027633   -0.0012627   -0.0000000
 77   H2 d+1        0.0001971   -0.0016107    0.0030701    0.0022675   -0.0000000
 78   H2 d-1        0.0000000    0.0000000    0.0000000   -0.0000000   -0.0028648
 79   H2 d+2        0.0000829   -0.0008804    0.0008751    0.0040142   -0.0000000
 80   H2 d-2        0.0000000    0.0000000   -0.0000000   -0.0000000   -0.0035216
 81   H2 f0         0.0000172   -0.0000504   -0.0001681    0.0002756   -0.0000000
 82   H2 f+1       -0.0000651    0.0001841   -0.0007400   -0.0000226   -0.0000000
 83   H2 f-1       -0.0000000   -0.0000000    0.0000000    0.0000000    0.0002679
 84   H2 f+2       -0.0000653    0.0001788   -0.0004606   -0.0004451   -0.0000000
 85   H2 f-2       -0.0000000   -0.0000000   -0.0000000   -0.0000000    0.0005078
 86   H2 f+3       -0.0000272    0.0001097   -0.0001248   -0.0004143   -0.0000000
 87   H2 f-3       -0.0000000    0.0000000   -0.0000000    0.0000000    0.0003650
 88   H3 s0        -0.0000378   -0.0187775   -0.0562651    0.0522218    0.0000000
 89   H3 s0         0.0001202   -0.0387905   -0.1168934    0.1081252    0.0000000
 90   H3 s0         0.0000709   -0.0299257   -0.1734717    0.1684069    0.0000000
 91   H3 s0        -0.0000509   -0.0037867   -0.0638446    0.0482608    0.0000000
 92   H3 p0         0.0000719    0.0008093    0.0014950    0.0002224    0.0000000
 93   H3 p+1       -0.0000555   -0.0009171   -0.0006627    0.0013465    0.0000000
 94   H3 p-1        0.0000000    0.0000000   -0.0000000   -0.0000000    0.0013296
 95   H3 p0        -0.0001925    0.0054888    0.0077952   -0.0045762   -0.0000000
 96   H3 p+1        0.0001446   -0.0054382   -0.0038122    0.0070324   -0.0000000
 97   H3 p-1       -0.0000000   -0.0000000    0.0000000    0.0000000    0.0036180
 98   H3 p0        -0.0000321    0.0043749    0.0188503    0.0010176   -0.0000000
 99   H3 p+1        0.0000062   -0.0051291   -0.0084557    0.0241716    0.0000000
 100  H3 p-1        0.0000000   -0.0000000   -0.0000000   -0.0000000    0.0191815
 101  H3 d0        -0.0000101   -0.0001338   -0.0002904   -0.0000213   -0.0000000
 102  H3 d+1        0.0000152    0.0005267    0.0005945   -0.0004390    0.0000000
 103  H3 d-1        0.0000000    0.0000000    0.0000000    0.0000000   -0.0001807
 104  H3 d+2       -0.0000078   -0.0002663   -0.0001127    0.0000854    0.0000000
 105  H3 d-2       -0.0000000   -0.0000000    0.0000000   -0.0000000    0.0000563
 106  H3 d0         0.0000939   -0.0005315   -0.0027633   -0.0012627    0.0000000
 107  H3 d+1       -0.0001971    0.0016107    0.0030701   -0.0022675   -0.0000000
 108  H3 d-1       -0.0000000   -0.0000000   -0.0000000   -0.0000000   -0.0028648
 109  H3 d+2        0.0000829   -0.0008804   -0.0008751    0.0040142   -0.0000000
 110  H3 d-2        0.0000000   -0.0000000    0.0000000    0.0000000    0.0035216
 111  H3 f0         0.0000172   -0.0000504    0.0001681    0.0002756    0.0000000
 112  H3 f+1        0.0000651   -0.0001841   -0.0007400    0.0000226    0.0000000
 113  H3 f-1        0.0000000    0.0000000    0.0000000    0.0000000    0.0002679
 114  H3 f+2       -0.0000653    0.0001788    0.0004606   -0.0004451    0.0000000
 115  H3 f-2       -0.0000000    0.0000000   -0.0000000   -0.0000000   -0.0005078
 116  H3 f+3        0.0000272   -0.0001097   -0.0001248    0.0004143    0.0000000
 117  H3 f-3        0.0000000    0.0000000    0.0000000   -0.0000000    0.0003650

            Ene   -20.6298829   -1.2281716   -0.5254627   -0.5154280   -0.5025440
            Sym             A            A            A            A            A
            Occ             1            1            1            1            1


                            6            7            8            9           10

 1    O1 s0         0.0269460    0.0000000   -0.0000000    0.0195517    0.0202362
 2    O1 s0         0.0063270   -0.0000000    0.0000000   -0.0000414    0.0037071
 3    O1 s0         0.0275544    0.0000000   -0.0000000    0.0356224    0.0251948
 4    O1 s0         0.0378107   -0.0000000    0.0000000   -0.0207340    0.0164231
 5    O1 s0        -0.1438625    0.0000000   -0.0000000    0.0497539   -0.0785044
 6    O1 s0         0.0473786   -0.0000000    0.0000000   -0.2944064    0.0721507
 7    O1 s0        -0.5784587   -0.0000000    0.0000000    0.0423410   -1.2203805
 8    O1 p0        -0.1673018   -0.0000000    0.0000000   -0.1427061    0.1642114
 9    O1 p+1       -0.0000000    0.1812822    0.0979266    0.0000000   -0.0000000
 10   O1 p-1        0.0000000   -0.0000000   -0.0000000    0.0000000    0.0000000
 11   O1 p0        -0.1732288   -0.0000000    0.0000000   -0.1051085    0.0231633
 12   O1 p+1        0.0000000    0.2134548    0.0721619    0.0000000    0.0000000
 13   O1 p-1        0.0000000    0.0000000    0.0000000    0.0000000   -0.0000000
 14   O1 p0        -0.1382160   -0.0000000    0.0000000   -0.3855157    0.4781453
 15   O1 p+1       -0.0000000    0.0435775    0.3103227    0.0000000   -0.0000000
 16   O1 p-1       -0.0000000   -0.0000000   -0.0000000    0.0000000    0.0000000
 17   O1 p0        -0.2912154   -0.0000000    0.0000000   -0.2482501   -1.9160027
 18   O1 p+1       -0.0000000    0.5701523    0.1259735    0.0000000    0.0000000
 19   O1 p-1        0.0000000    0.0000000    0.0000000   -0.0000000   -0.0000000
 20   O1 d0        -0.0003470   -0.0000000    0.0000000   -0.0010406   -0.0033269
 21   O1 d+1       -0.0000000   -0.0001084   -0.0006509    0.0000000   -0.0000000
 22   O1 d-1        0.0000000    0.0000000   -0.0000000   -0.0000000   -0.0000000
 23   O1 d+2        0.0005783   -0.0000000   -0.0000000    0.0010730   -0.0028449
 24   O1 d-2        0.0000000   -0.0000000   -0.0000000    0.0000000   -0.0000000
 25   O1 d0        -0.0022143    0.0000000   -0.0000000    0.0094703    0.0219181
 26   O1 d+1        0.0000000   -0.0022791   -0.0229894   -0.0000000    0.0000000
 27   O1 d-1       -0.0000000    0.0000000   -0.0000000   -0.0000000    0.0000000
 28   O1 d+2        0.0005131    0.0000000   -0.0000000    0.0111393    0.0219025
 29   O1 d-2       -0.0000000    0.0000000    0.0000000   -0.0000000    0.0000000
 30   O1 d0         0.0012929   -0.0000000    0.0000000   -0.0439988   -0.0897241
 31   O1 d+1       -0.0000000   -0.0396354    0.1020880    0.0000000   -0.0000000
 32   O1 d-1       -0.0000000   -0.0000000    0.0000000    0.0000000   -0.0000000
 33   O1 d+2        0.0117598   -0.0000000    0.0000000   -0.0352273   -0.1067431
 34   O1 d-2       -0.0000000   -0.0000000   -0.0000000    0.0000000    0.0000000
 35   O1 f0        -0.0003515   -0.0000000    0.0000000   -0.0004759    0.0001926
 36   O1 f+1        0.0000000    0.0011270   -0.0035573   -0.0000000    0.0000000
 37   O1 f-1       -0.0000000   -0.0000000    0.0000000    0.0000000    0.0000000
 38   O1 f+2       -0.0001361    0.0000000   -0.0000000    0.0025947    0.0025396
 39   O1 f-2        0.0000000   -0.0000000   -0.0000000   -0.0000000   -0.0000000
 40   O1 f+3        0.0000000    0.0009667   -0.0016628   -0.0000000    0.0000000
 41   O1 f-3        0.0000000    0.0000000   -0.0000000   -0.0000000    0.0000000
 42   O1 f0        -0.0010425    0.0000000   -0.0000000    0.0010825    0.0019847
 43   O1 f+1       -0.0000000   -0.0084640    0.0185800    0.0000000   -0.0000000
 44   O1 f-1       -0.0000000    0.0000000   -0.0000000   -0.0000000    0.0000000
 45   O1 f+2       -0.0004466   -0.0000000    0.0000000   -0.0156820   -0.0138873
 46   O1 f-2       -0.0000000   -0.0000000    0.0000000    0.0000000    0.0000000
 47   O1 f+3       -0.0000000   -0.0022947    0.0110296    0.0000000   -0.0000000
 48   O1 f-3        0.0000000   -0.0000000    0.0000000    0.0000000    0.0000000
 49   O1 g0         0.0000159    0.0000000   -0.0000000    0.0009081   -0.0003901
 50   O1 g+1       -0.0000000   -0.0003339    0.0003748   -0.0000000   -0.0000000
 51   O1 g-1        0.0000000   -0.0000000    0.0000000    0.0000000   -0.0000000
 52   O1 g+2       -0.0000702   -0.0000000    0.0000000   -0.0016274    0.0005540
 53   O1 g-2       -0.0000000   -0.0000000    0.0000000    0.0000000   -0.0000000
 54   O1 g+3       -0.0000000   -0.0008661    0.0018122    0.0000000   -0.0000000
 55   O1 g-3       -0.0000000   -0.0000000   -0.0000000    0.0000000    0.0000000
 56   O1 g+4        0.0000265   -0.0000000    0.0000000   -0.0001522    0.0004364
 57   O1 g-4       -0.0000000   -0.0000000   -0.0000000   -0.0000000    0.0000000
 58   H2 s0         0.0305029   -0.0392964   -0.0863120    0.0887086    0.0078613
 59   H2 s0         0.1165096   -0.1354996    0.0503134   -0.0739853   -0.0921732
 60   H2 s0        -0.0394451    0.0572485   -1.4511127    1.5568624    0.9830024
 61   H2 s0         0.6911219   -1.2214099    1.6273188   -1.1278929    0.0369412
 62   H2 p0         0.0014572    0.0004968   -0.0099820    0.0069641   -0.0139525
 63   H2 p+1        0.0018531    0.0014557   -0.0087924    0.0091491   -0.0036834
 64   H2 p-1        0.0000000    0.0000000   -0.0000000   -0.0000000   -0.0000000
 65   H2 p0         0.0050440   -0.0177729    0.0297829   -0.0169865    0.0543069
 66   H2 p+1        0.0064922   -0.0188464    0.0332482   -0.0196118    0.0256650
 67   H2 p-1        0.0000000   -0.0000000    0.0000000    0.0000000    0.0000000
 68   H2 p0         0.0191168   -0.0383274    0.0064354   -0.0014088   -0.3418055
 69   H2 p+1        0.0272840   -0.0231293    0.0083777   -0.0184805   -0.2811251
 70   H2 p-1        0.0000000    0.0000000   -0.0000000   -0.0000000   -0.0000000
 71   H2 d0         0.0000035   -0.0001255    0.0011855   -0.0006123    0.0010174
 72   H2 d+1       -0.0001271   -0.0010716    0.0039049   -0.0030558   -0.0036559
 73   H2 d-1        0.0000000    0.0000000   -0.0000000   -0.0000000    0.0000000
 74   H2 d+2       -0.0005404   -0.0005008    0.0015239   -0.0020473   -0.0013137
 75   H2 d-2        0.0000000    0.0000000   -0.0000000    0.0000000    0.0000000
 76   H2 d0         0.0006341    0.0059544   -0.0118272    0.0056125   -0.0041005
 77   H2 d+1       -0.0042673    0.0139019   -0.0400005    0.0263974    0.0266165
 78   H2 d-1       -0.0000000   -0.0000000    0.0000000    0.0000000   -0.0000000
 79   H2 d+2       -0.0006935    0.0057870   -0.0168081    0.0189616    0.0143397
 80   H2 d-2       -0.0000000   -0.0000000    0.0000000    0.0000000   -0.0000000
 81   H2 f0        -0.0006859   -0.0000648   -0.0015105    0.0013182   -0.0004051
 82   H2 f+1        0.0012689   -0.0017186    0.0037896   -0.0036147   -0.0027696
 83   H2 f-1       -0.0000000   -0.0000000    0.0000000    0.0000000   -0.0000000
 84   H2 f+2        0.0016746   -0.0010824    0.0040737   -0.0047456   -0.0024835
 85   H2 f-2       -0.0000000    0.0000000    0.0000000   -0.0000000   -0.0000000
 86   H2 f+3        0.0004972   -0.0004080    0.0020210   -0.0018485   -0.0000022
 87   H2 f-3       -0.0000000   -0.0000000    0.0000000    0.0000000   -0.0000000
 88   H3 s0         0.0305029    0.0392964    0.0863120    0.0887086    0.0078613
 89   H3 s0         0.1165096    0.1354996   -0.0503134   -0.0739853   -0.0921732
 90   H3 s0        -0.0394451   -0.0572485    1.4511127    1.5568624    0.9830024
 91   H3 s0         0.6911219    1.2214099   -1.6273188   -1.1278929    0.0369412
 92   H3 p0         0.0014572   -0.0004968    0.0099820    0.0069641   -0.0139525
 93   H3 p+1       -0.0018531    0.0014557   -0.0087924   -0.0091491    0.0036834
 94   H3 p-1        0.0000000   -0.0000000    0.0000000   -0.0000000   -0.0000000
 95   H3 p0         0.0050440    0.0177729   -0.0297829   -0.0169865    0.0543069
 96   H3 p+1       -0.0064922   -0.0188464    0.0332482    0.0196118   -0.0256650
 97   H3 p-1       -0.0000000   -0.0000000    0.0000000    0.0000000    0.0000000
 98   H3 p0         0.0191168    0.0383274   -0.0064354   -0.0014088   -0.3418055
 99   H3 p+1       -0.0272840   -0.0231293    0.0083777    0.0184805    0.2811251
 100  H3 p-1        0.0000000    0.0000000   -0.0000000   -0.0000000   -0.0000000
 101  H3 d0         0.0000035    0.0001255   -0.0011855   -0.0006123    0.0010174
 102  H3 d+1        0.0001271   -0.0010716    0.0039049    0.0030558    0.0036559
 103  H3 d-1        0.0000000    0.0000000   -0.0000000    0.0000000    0.0000000
 104  H3 d+2       -0.0005404    0.0005008   -0.0015239   -0.0020473   -0.0013137
 105  H3 d-2       -0.0000000    0.0000000   -0.0000000   -0.0000000   -0.0000000
 106  H3 d0         0.0006341   -0.0059544    0.0118272    0.0056125   -0.0041005
 107  H3 d+1        0.0042673    0.0139019   -0.0400005   -0.0263974   -0.0266165
 108  H3 d-1       -0.0000000    0.0000000    0.0000000   -0.0000000   -0.0000000
 109  H3 d+2       -0.0006935   -0.0057870    0.0168081    0.0189616    0.0143397
 110  H3 d-2        0.0000000   -0.0000000    0.0000000   -0.0000000   -0.0000000
 111  H3 f0        -0.0006859    0.0000648    0.0015105    0.0013182   -0.0004051
 112  H3 f+1       -0.0012689   -0.0017186    0.0037896    0.0036147    0.0027696
 113  H3 f-1        0.0000000    0.0000000   -0.0000000   -0.0000000   -0.0000000
 114  H3 f+2        0.0016746    0.0010824   -0.0040737   -0.0047456   -0.0024835
 115  H3 f-2       -0.0000000    0.0000000    0.0000000   -0.0000000    0.0000000
 116  H3 f+3       -0.0004972   -0.0004080    0.0020210    0.0018485    0.0000022
 117  H3 f-3        0.0000000   -0.0000000   -0.0000000    0.0000000   -0.0000000

            Ene     0.0469212    0.0878950    0.2747252    0.3043008    0.3774567
            Sym             A            A            A            A            A
            Occ             0            0            0            0            0


                           11           12           13           14           15

 1    O1 s0        -0.0000000    0.0000000    0.0048147   -0.0000000   -0.0000000
 2    O1 s0        -0.0000000    0.0000000    0.0006879    0.0000000   -0.0000000
 3    O1 s0        -0.0000000    0.0000000    0.0065441    0.0000000   -0.0000000
 4    O1 s0        -0.0000000    0.0000000    0.0022943   -0.0000000    0.0000000
 5    O1 s0         0.0000000   -0.0000000   -0.0186526    0.0000000   -0.0000000
 6    O1 s0        -0.0000000    0.0000000    0.1093317   -0.0000000    0.0000000
 7    O1 s0         0.0000000   -0.0000000   -0.7220502    0.0000000   -0.0000000
 8    O1 p0        -0.0000000    0.0000000   -0.0238616    0.0000000    0.0000000
 9    O1 p+1        0.0000000    0.2075812    0.0000000   -0.0000000   -0.0000000
 10   O1 p-1        0.2018901    0.0000000    0.0000000   -0.0000000   -0.0005080
 11   O1 p0        -0.0000000   -0.0000000    0.0112967   -0.0000000    0.0000000
 12   O1 p+1        0.0000000    0.0035391    0.0000000   -0.0000000   -0.0000000
 13   O1 p-1       -0.0126010    0.0000000    0.0000000   -0.0000000    0.0429771
 14   O1 p0        -0.0000000    0.0000000   -0.2188385    0.0000000   -0.0000000
 15   O1 p+1       -0.0000000    0.8829839   -0.0000000    0.0000000    0.0000000
 16   O1 p-1        0.8685318   -0.0000000   -0.0000000   -0.0000000   -0.1567173
 17   O1 p0         0.0000000   -0.0000000   -0.7776440    0.0000000   -0.0000000
 18   O1 p+1        0.0000000   -2.2713509   -0.0000000    0.0000000    0.0000000
 19   O1 p-1       -1.3450559    0.0000000   -0.0000000   -0.0000000    0.9340809
 20   O1 d0         0.0000000   -0.0000000   -0.0010170   -0.0000000    0.0000000
 21   O1 d+1        0.0000000   -0.0032682   -0.0000000    0.0000000    0.0000000
 22   O1 d-1       -0.0003755    0.0000000    0.0000000    0.0000000   -0.0042775
 23   O1 d+2        0.0000000    0.0000000   -0.0024707    0.0000000    0.0000000
 24   O1 d-2        0.0000000    0.0000000    0.0000000    0.0046747    0.0000000
 25   O1 d0        -0.0000000   -0.0000000    0.0362179   -0.0000000    0.0000000
 26   O1 d+1       -0.0000000    0.0268496    0.0000000   -0.0000000   -0.0000000
 27   O1 d-1        0.0024279   -0.0000000   -0.0000000    0.0000000   -0.0147464
 28   O1 d+2       -0.0000000    0.0000000   -0.0004418   -0.0000000    0.0000000
 29   O1 d-2       -0.0000000    0.0000000   -0.0000000    0.0103248    0.0000000
 30   O1 d0         0.0000000    0.0000000   -0.0932166    0.0000000   -0.0000000
 31   O1 d+1       -0.0000000   -0.0875670   -0.0000000    0.0000000    0.0000000
 32   O1 d-1       -0.0039330    0.0000000    0.0000000    0.0000000   -0.0212774
 33   O1 d+2        0.0000000    0.0000000   -0.0585991    0.0000000   -0.0000000
 34   O1 d-2        0.0000000   -0.0000000   -0.0000000    0.0329202    0.0000000
 35   O1 f0        -0.0000000   -0.0000000    0.0039070    0.0000000   -0.0000000
 36   O1 f+1       -0.0000000   -0.0003684    0.0000000   -0.0000000    0.0000000
 37   O1 f-1        0.0000354    0.0000000   -0.0000000    0.0000000   -0.0029063
 38   O1 f+2       -0.0000000   -0.0000000    0.0015375   -0.0000000    0.0000000
 39   O1 f-2        0.0000000    0.0000000    0.0000000    0.0044135    0.0000000
 40   O1 f+3        0.0000000    0.0005539    0.0000000    0.0000000   -0.0000000
 41   O1 f-3        0.0000567   -0.0000000   -0.0000000    0.0000000   -0.0035873
 42   O1 f0        -0.0000000    0.0000000   -0.0149636   -0.0000000   -0.0000000
 43   O1 f+1        0.0000000    0.0026895   -0.0000000    0.0000000    0.0000000
 44   O1 f-1        0.0020991   -0.0000000    0.0000000   -0.0000000    0.0112747
 45   O1 f+2        0.0000000    0.0000000   -0.0131769    0.0000000   -0.0000000
 46   O1 f-2       -0.0000000   -0.0000000   -0.0000000   -0.0180098   -0.0000000
 47   O1 f+3        0.0000000    0.0005829   -0.0000000    0.0000000    0.0000000
 48   O1 f-3        0.0028555    0.0000000    0.0000000   -0.0000000    0.0165994
 49   O1 g0         0.0000000   -0.0000000    0.0008276    0.0000000    0.0000000
 50   O1 g+1        0.0000000    0.0004634   -0.0000000   -0.0000000   -0.0000000
 51   O1 g-1        0.0000353    0.0000000   -0.0000000   -0.0000000   -0.0001080
 52   O1 g+2       -0.0000000    0.0000000   -0.0017632    0.0000000   -0.0000000
 53   O1 g-2       -0.0000000   -0.0000000    0.0000000   -0.0000678   -0.0000000
 54   O1 g+3       -0.0000000    0.0013618   -0.0000000    0.0000000    0.0000000
 55   O1 g-3        0.0003346    0.0000000   -0.0000000   -0.0000000    0.0008124
 56   O1 g+4       -0.0000000    0.0000000   -0.0000447   -0.0000000    0.0000000
 57   O1 g-4       -0.0000000   -0.0000000    0.0000000    0.0000778    0.0000000
 58   H2 s0        -0.0000000   -0.0118157   -0.0064558    0.0000000    0.0000000
 59   H2 s0         0.0000000   -0.0796613   -0.0463636   -0.0000000    0.0000000
 60   H2 s0        -0.0000000    0.2951259    0.5635072   -0.0000000   -0.0000000
 61   H2 s0        -0.0000000    1.1131956   -0.0786563   -0.0000000   -0.0000000
 62   H2 p0         0.0000000   -0.0052157    0.0297033    0.0000000   -0.0000000
 63   H2 p+1        0.0000000   -0.0099751   -0.0293066   -0.0000000   -0.0000000
 64   H2 p-1       -0.0078582   -0.0000000   -0.0000000    0.0501166   -0.0502488
 65   H2 p0        -0.0000000    0.0284263   -0.1040472    0.0000000   -0.0000000
 66   H2 p+1       -0.0000000    0.0374894    0.1041490    0.0000000    0.0000000
 67   H2 p-1        0.0195943    0.0000000    0.0000000   -0.1825224    0.1912604
 68   H2 p0         0.0000000   -0.1497848    0.3754683    0.0000000    0.0000000
 69   H2 p+1        0.0000000   -0.1755931   -0.7321970    0.0000000   -0.0000000
 70   H2 p-1       -0.0983137   -0.0000000   -0.0000000    0.8621483   -0.9253893
 71   H2 d0         0.0000000   -0.0008539    0.0000018    0.0000000    0.0000000
 72   H2 d+1        0.0000000    0.0001186   -0.0021494   -0.0000000    0.0000000
 73   H2 d-1        0.0008886    0.0000000    0.0000000    0.0009949    0.0018970
 74   H2 d+2        0.0000000    0.0000702   -0.0002964   -0.0000000   -0.0000000
 75   H2 d-2        0.0002290    0.0000000    0.0000000   -0.0026979   -0.0042762
 76   H2 d0         0.0000000    0.0034703   -0.0028260   -0.0000000   -0.0000000
 77   H2 d+1       -0.0000000   -0.0002335    0.0204908   -0.0000000   -0.0000000
 78   H2 d-1       -0.0026682    0.0000000   -0.0000000   -0.0050708   -0.0119657
 79   H2 d+2       -0.0000000   -0.0014453    0.0164855   -0.0000000   -0.0000000
 80   H2 d-2        0.0009002   -0.0000000   -0.0000000    0.0167578    0.0232921
 81   H2 f0         0.0000000    0.0016704    0.0042581    0.0000000   -0.0000000
 82   H2 f+1        0.0000000    0.0018861    0.0010361   -0.0000000    0.0000000
 83   H2 f-1       -0.0016737    0.0000000    0.0000000    0.0015343   -0.0005234
 84   H2 f+2        0.0000000   -0.0004468   -0.0037773    0.0000000    0.0000000
 85   H2 f-2       -0.0034562    0.0000000    0.0000000    0.0027404   -0.0017384
 86   H2 f+3       -0.0000000   -0.0014519   -0.0010391    0.0000000   -0.0000000
 87   H2 f-3       -0.0022376    0.0000000    0.0000000    0.0014207   -0.0023589
 88   H3 s0        -0.0000000    0.0118157   -0.0064558   -0.0000000   -0.0000000
 89   H3 s0         0.0000000    0.0796613   -0.0463636    0.0000000   -0.0000000
 90   H3 s0        -0.0000000   -0.2951259    0.5635072   -0.0000000    0.0000000
 91   H3 s0        -0.0000000   -1.1131956   -0.0786563    0.0000000    0.0000000
 92   H3 p0         0.0000000    0.0052157    0.0297033    0.0000000   -0.0000000
 93   H3 p+1       -0.0000000   -0.0099751    0.0293066   -0.0000000   -0.0000000
 94   H3 p-1       -0.0078582   -0.0000000    0.0000000   -0.0501166   -0.0502488
 95   H3 p0        -0.0000000   -0.0284263   -0.1040472   -0.0000000    0.0000000
 96   H3 p+1        0.0000000    0.0374894   -0.1041490    0.0000000    0.0000000
 97   H3 p-1        0.0195943    0.0000000   -0.0000000    0.1825224    0.1912604
 98   H3 p0         0.0000000    0.1497848    0.3754683    0.0000000   -0.0000000
 99   H3 p+1       -0.0000000   -0.1755931    0.7321970   -0.0000000    0.0000000
 100  H3 p-1       -0.0983137   -0.0000000    0.0000000   -0.8621483   -0.9253893
 101  H3 d0         0.0000000    0.0008539    0.0000018   -0.0000000    0.0000000
 102  H3 d+1       -0.0000000    0.0001186    0.0021494   -0.0000000   -0.0000000
 103  H3 d-1        0.0008886   -0.0000000    0.0000000   -0.0009949    0.0018970
 104  H3 d+2        0.0000000   -0.0000702   -0.0002964   -0.0000000   -0.0000000
 105  H3 d-2       -0.0002290    0.0000000    0.0000000   -0.0026979    0.0042762
 106  H3 d0         0.0000000   -0.0034703   -0.0028260   -0.0000000    0.0000000
 107  H3 d+1        0.0000000   -0.0002335   -0.0204908    0.0000000   -0.0000000
 108  H3 d-1       -0.0026682    0.0000000   -0.0000000    0.0050708   -0.0119657
 109  H3 d+2       -0.0000000    0.0014453    0.0164855    0.0000000    0.0000000
 110  H3 d-2       -0.0009002   -0.0000000   -0.0000000    0.0167578   -0.0232921
 111  H3 f0         0.0000000   -0.0016704    0.0042581    0.0000000    0.0000000
 112  H3 f+1       -0.0000000    0.0018861   -0.0010361    0.0000000    0.0000000
 113  H3 f-1       -0.0016737   -0.0000000    0.0000000   -0.0015343   -0.0005234
 114  H3 f+2        0.0000000    0.0004468   -0.0037773    0.0000000   -0.0000000
 115  H3 f-2        0.0034562    0.0000000    0.0000000    0.0027404    0.0017384
 116  H3 f+3       -0.0000000   -0.0014519    0.0010391   -0.0000000    0.0000000
 117  H3 f-3       -0.0022376   -0.0000000   -0.0000000   -0.0014207   -0.0023589

            Ene     0.3802862    0.4642817    0.5167602    0.6146618    0.6323578
            Sym             A            A            A            A            A
            Occ             0            0            0            0            0


                           16           17           18           19           20

 1    O1 s0         0.0640216   -0.0000000    0.0000000    0.0234581    0.0068062
 2    O1 s0        -0.0029392    0.0000000   -0.0000000   -0.0034924   -0.0071171
 3    O1 s0         0.1288607   -0.0000000    0.0000000    0.0556580    0.0368292
 4    O1 s0        -0.1016695    0.0000000   -0.0000000   -0.0631562   -0.0845133
 5    O1 s0         0.3037302   -0.0000000    0.0000000    0.2252319    0.2612870
 6    O1 s0        -2.0029563    0.0000000   -0.0000000   -1.9226104   -0.1141731
 7    O1 s0         2.0937200    0.0000000    0.0000000    6.2037305   -2.6199600
 8    O1 p0        -0.0840764    0.0000000    0.0000000    0.1208060    0.0420356
 9    O1 p+1        0.0000000    0.0437606    0.0980637   -0.0000000    0.0000000
 10   O1 p-1        0.0000000   -0.0000000   -0.0000000   -0.0000000   -0.0000000
 11   O1 p0        -0.1007563   -0.0000000   -0.0000000   -0.1491148    0.3052796
 12   O1 p+1       -0.0000000   -0.0331685   -0.0324441   -0.0000000    0.0000000
 13   O1 p-1       -0.0000000   -0.0000000   -0.0000000   -0.0000000    0.0000000
 14   O1 p0        -0.2484592    0.0000000    0.0000000    1.8975732   -1.6007807
 15   O1 p+1        0.0000000    0.6103376    1.1543095   -0.0000000   -0.0000000
 16   O1 p-1        0.0000000    0.0000000    0.0000000    0.0000000   -0.0000000
 17   O1 p0         0.8639302   -0.0000000    0.0000000    1.0371737   -0.5618564
 18   O1 p+1        0.0000000    1.0891308    0.3586601   -0.0000000   -0.0000000
 19   O1 p-1        0.0000000   -0.0000000   -0.0000000    0.0000000    0.0000000
 20   O1 d0        -0.0015085    0.0000000    0.0000000    0.0013843   -0.0085893
 21   O1 d+1        0.0000000    0.0025646   -0.0042181    0.0000000   -0.0000000
 22   O1 d-1       -0.0000000    0.0000000    0.0000000    0.0000000   -0.0000000
 23   O1 d+2       -0.0012602    0.0000000   -0.0000000   -0.0076782   -0.0040901
 24   O1 d-2       -0.0000000    0.0000000   -0.0000000   -0.0000000    0.0000000
 25   O1 d0        -0.0082042   -0.0000000   -0.0000000   -0.0328251    0.0368204
 26   O1 d+1       -0.0000000   -0.0389539   -0.0372429    0.0000000    0.0000000
 27   O1 d-1       -0.0000000   -0.0000000   -0.0000000    0.0000000    0.0000000
 28   O1 d+2       -0.0037887   -0.0000000   -0.0000000   -0.0267943    0.0225230
 29   O1 d-2       -0.0000000   -0.0000000    0.0000000    0.0000000   -0.0000000
 30   O1 d0        -0.0010406    0.0000000    0.0000000    0.2136378   -0.3575524
 31   O1 d+1        0.0000000    0.2998131    0.2870172   -0.0000000   -0.0000000
 32   O1 d-1       -0.0000000    0.0000000   -0.0000000   -0.0000000   -0.0000000
 33   O1 d+2       -0.0048175    0.0000000    0.0000000    0.1951722   -0.4041265
 34   O1 d-2       -0.0000000    0.0000000   -0.0000000   -0.0000000   -0.0000000
 35   O1 f0         0.0002213    0.0000000    0.0000000    0.0026390   -0.0016408
 36   O1 f+1       -0.0000000   -0.0030536   -0.0065140    0.0000000    0.0000000
 37   O1 f-1        0.0000000    0.0000000    0.0000000    0.0000000   -0.0000000
 38   O1 f+2       -0.0062669   -0.0000000   -0.0000000   -0.0165040    0.0149467
 39   O1 f-2        0.0000000   -0.0000000    0.0000000    0.0000000   -0.0000000
 40   O1 f+3       -0.0000000   -0.0049035   -0.0022501    0.0000000    0.0000000
 41   O1 f-3        0.0000000    0.0000000   -0.0000000    0.0000000   -0.0000000
 42   O1 f0        -0.0036545   -0.0000000   -0.0000000   -0.0222574    0.0224458
 43   O1 f+1        0.0000000    0.0301362    0.0441821   -0.0000000   -0.0000000
 44   O1 f-1        0.0000000   -0.0000000   -0.0000000    0.0000000   -0.0000000
 45   O1 f+2        0.0312250    0.0000000    0.0000000    0.1139249   -0.1237788
 46   O1 f-2        0.0000000   -0.0000000   -0.0000000    0.0000000   -0.0000000
 47   O1 f+3        0.0000000    0.0283499    0.0205728   -0.0000000   -0.0000000
 48   O1 f-3        0.0000000   -0.0000000    0.0000000   -0.0000000    0.0000000
 49   O1 g0        -0.0027581   -0.0000000   -0.0000000   -0.0047296    0.0058998
 50   O1 g+1        0.0000000    0.0001349    0.0001740    0.0000000   -0.0000000
 51   O1 g-1       -0.0000000   -0.0000000   -0.0000000   -0.0000000   -0.0000000
 52   O1 g+2        0.0051152    0.0000000    0.0000000    0.0087494   -0.0118756
 53   O1 g-2       -0.0000000   -0.0000000    0.0000000   -0.0000000    0.0000000
 54   O1 g+3        0.0000000    0.0030834    0.0009986    0.0000000   -0.0000000
 55   O1 g-3        0.0000000   -0.0000000    0.0000000   -0.0000000    0.0000000
 56   O1 g+4        0.0011748    0.0000000    0.0000000    0.0012387   -0.0025563
 57   O1 g-4       -0.0000000   -0.0000000   -0.0000000   -0.0000000    0.0000000
 58   H2 s0         0.0129082    0.0031082   -0.0233897   -0.0003984   -0.0507577
 59   H2 s0         0.1324248    0.0454737   -0.2957670    0.0275966   -1.4225200
 60   H2 s0        -0.7240841   -0.8299900   -0.3287821   -2.1874159    3.5038670
 61   H2 s0         0.0059800   -0.1892018   -1.0087235   -0.3893629   -0.8148313
 62   H2 p0        -0.0289700    0.0414307    0.0139485    0.0203938    0.0103298
 63   H2 p+1       -0.0252501   -0.0322721    0.0449663    0.0044651    0.0266649
 64   H2 p-1       -0.0000000    0.0000000    0.0000000   -0.0000000   -0.0000000
 65   H2 p0         0.1252585   -0.1647772   -0.0701999   -0.1073954   -0.0119847
 66   H2 p+1        0.1048544    0.1189564   -0.1970102   -0.0412512   -0.0844557
 67   H2 p-1        0.0000000   -0.0000000   -0.0000000    0.0000000    0.0000000
 68   H2 p0        -0.3734941    1.2478221    0.8504888    1.4927061   -0.7277404
 69   H2 p+1       -0.2441604   -0.2239697    1.4601976    1.4019565   -0.6682508
 70   H2 p-1       -0.0000000    0.0000000   -0.0000000   -0.0000000    0.0000000
 71   H2 d0         0.0004939    0.0018277    0.0020538    0.0055336   -0.0045670
 72   H2 d+1        0.0020371    0.0060989    0.0107829    0.0187723   -0.0180535
 73   H2 d-1        0.0000000   -0.0000000    0.0000000   -0.0000000    0.0000000
 74   H2 d+2        0.0053025    0.0044365    0.0045756    0.0154601   -0.0137310
 75   H2 d-2       -0.0000000   -0.0000000   -0.0000000   -0.0000000    0.0000000
 76   H2 d0        -0.0088037   -0.0171495   -0.0306388   -0.0423981    0.0335765
 77   H2 d+1       -0.0352960   -0.0711362   -0.1040626   -0.1786691    0.1729949
 78   H2 d-1        0.0000000    0.0000000   -0.0000000    0.0000000   -0.0000000
 79   H2 d+2       -0.0418970   -0.0484138   -0.0354574   -0.1392726    0.1295530
 80   H2 d-2        0.0000000    0.0000000    0.0000000    0.0000000   -0.0000000
 81   H2 f0         0.0020883    0.0001049   -0.0031714   -0.0058156    0.0080358
 82   H2 f+1       -0.0059958    0.0119145    0.0112983    0.0109591   -0.0178571
 83   H2 f-1        0.0000000   -0.0000000   -0.0000000    0.0000000   -0.0000000
 84   H2 f+2       -0.0061313    0.0066233    0.0119037    0.0177221   -0.0240657
 85   H2 f-2        0.0000000   -0.0000000   -0.0000000    0.0000000    0.0000000
 86   H2 f+3       -0.0013127    0.0004815    0.0076510    0.0072837   -0.0092862
 87   H2 f-3        0.0000000    0.0000000   -0.0000000    0.0000000    0.0000000
 88   H3 s0         0.0129082   -0.0031082    0.0233897   -0.0003984   -0.0507577
 89   H3 s0         0.1324248   -0.0454737    0.2957670    0.0275966   -1.4225200
 90   H3 s0        -0.7240841    0.8299900    0.3287821   -2.1874159    3.5038670
 91   H3 s0         0.0059800    0.1892018    1.0087235   -0.3893629   -0.8148313
 92   H3 p0        -0.0289700   -0.0414307   -0.0139485    0.0203938    0.0103298
 93   H3 p+1        0.0252501   -0.0322721    0.0449663   -0.0044651   -0.0266649
 94   H3 p-1       -0.0000000    0.0000000   -0.0000000   -0.0000000    0.0000000
 95   H3 p0         0.1252585    0.1647772    0.0701999   -0.1073954   -0.0119847
 96   H3 p+1       -0.1048544    0.1189564   -0.1970102    0.0412512    0.0844557
 97   H3 p-1        0.0000000   -0.0000000    0.0000000    0.0000000   -0.0000000
 98   H3 p0        -0.3734941   -1.2478221   -0.8504888    1.4927061   -0.7277404
 99   H3 p+1        0.2441604   -0.2239697    1.4601976   -1.4019565    0.6682508
 100  H3 p-1       -0.0000000    0.0000000   -0.0000000   -0.0000000    0.0000000
 101  H3 d0         0.0004939   -0.0018277   -0.0020538    0.0055336   -0.0045670
 102  H3 d+1       -0.0020371    0.0060989    0.0107829   -0.0187723    0.0180535
 103  H3 d-1        0.0000000    0.0000000   -0.0000000   -0.0000000    0.0000000
 104  H3 d+2        0.0053025   -0.0044365   -0.0045756    0.0154601   -0.0137310
 105  H3 d-2       -0.0000000   -0.0000000   -0.0000000    0.0000000    0.0000000
 106  H3 d0        -0.0088037    0.0171495    0.0306388   -0.0423981    0.0335765
 107  H3 d+1        0.0352960   -0.0711362   -0.1040626    0.1786691   -0.1729949
 108  H3 d-1       -0.0000000   -0.0000000    0.0000000   -0.0000000    0.0000000
 109  H3 d+2       -0.0418970    0.0484138    0.0354574   -0.1392726    0.1295530
 110  H3 d-2        0.0000000    0.0000000    0.0000000   -0.0000000    0.0000000
 111  H3 f0         0.0020883   -0.0001049    0.0031714   -0.0058156    0.0080358
 112  H3 f+1        0.0059958    0.0119145    0.0112983   -0.0109591    0.0178571
 113  H3 f-1       -0.0000000   -0.0000000   -0.0000000   -0.0000000   -0.0000000
 114  H3 f+2       -0.0061313   -0.0066233   -0.0119037    0.0177221   -0.0240657
 115  H3 f-2        0.0000000    0.0000000    0.0000000    0.0000000   -0.0000000
 116  H3 f+3        0.0013127    0.0004815    0.0076510   -0.0072837    0.0092862
 117  H3 f-3       -0.0000000   -0.0000000   -0.0000000   -0.0000000    0.0000000

            Ene     0.7672813    0.7860670    0.9185353    0.9412359    1.1592809
            Sym             A            A            A            A            A
            Occ             0            0            0            0            0


                           21           22           23           24           25

 1    O1 s0        -0.0000000   -0.0000000   -0.0000000    0.0061069    0.0220280
 2    O1 s0         0.0000000    0.0000000    0.0000000    0.0001707    0.0009347
 3    O1 s0        -0.0000000   -0.0000000    0.0000000    0.0112995    0.0396756
 4    O1 s0         0.0000000    0.0000000   -0.0000000   -0.0061325   -0.0185043
 5    O1 s0        -0.0000000   -0.0000000    0.0000000    0.0240302    0.0639556
 6    O1 s0         0.0000000    0.0000000   -0.0000000   -0.3921224   -1.0400360
 7    O1 s0        -0.0000000   -0.0000000    0.0000000    1.3154516    2.7519772
 8    O1 p0         0.0000000   -0.0000000    0.0000000    0.0827646    0.1539298
 9    O1 p+1        0.0082183    0.0000000    0.0000000   -0.0000000   -0.0000000
 10   O1 p-1       -0.0000000    0.0000000    0.0279228   -0.0000000    0.0000000
 11   O1 p0         0.0000000   -0.0000000    0.0000000    0.2039517    0.5657253
 12   O1 p+1       -0.2952397    0.0000000   -0.0000000   -0.0000000   -0.0000000
 13   O1 p-1       -0.0000000    0.0000000    0.0542656   -0.0000000    0.0000000
 14   O1 p0        -0.0000000    0.0000000   -0.0000000   -0.0302686   -0.6373068
 15   O1 p+1        2.4222253   -0.0000000    0.0000000    0.0000000    0.0000000
 16   O1 p-1        0.0000000   -0.0000000   -0.0414992    0.0000000   -0.0000000
 17   O1 p0        -0.0000000   -0.0000000    0.0000000    0.2630996    1.4664892
 18   O1 p+1        0.5403076   -0.0000000    0.0000000   -0.0000000    0.0000000
 19   O1 p-1       -0.0000000    0.0000000   -0.3546437    0.0000000    0.0000000
 20   O1 d0        -0.0000000   -0.0000000   -0.0000000   -0.0301005    0.0378080
 21   O1 d+1        0.0129111    0.0000000   -0.0000000    0.0000000    0.0000000
 22   O1 d-1        0.0000000    0.0000000   -0.0499175    0.0000000   -0.0000000
 23   O1 d+2        0.0000000   -0.0000000    0.0000000    0.0361848    0.0266014
 24   O1 d-2       -0.0000000    0.0509806    0.0000000    0.0000000    0.0000000
 25   O1 d0         0.0000000    0.0000000    0.0000000    0.0543600   -0.0704269
 26   O1 d+1       -0.0925294    0.0000000    0.0000000   -0.0000000   -0.0000000
 27   O1 d-1       -0.0000000   -0.0000000    0.1024581   -0.0000000    0.0000000
 28   O1 d+2       -0.0000000    0.0000000   -0.0000000   -0.0779169   -0.0631121
 29   O1 d-2       -0.0000000   -0.1065452   -0.0000000   -0.0000000   -0.0000000
 30   O1 d0        -0.0000000   -0.0000000   -0.0000000   -0.6599968    0.8752322
 31   O1 d+1        1.3037817   -0.0000000    0.0000000    0.0000000    0.0000000
 32   O1 d-1        0.0000000    0.0000000   -1.0729823    0.0000000   -0.0000000
 33   O1 d+2       -0.0000000   -0.0000000    0.0000000    0.8514703    0.6577566
 34   O1 d-2        0.0000000    1.0786248    0.0000000    0.0000000    0.0000000
 35   O1 f0         0.0000000   -0.0000000   -0.0000000   -0.0006798    0.0016053
 36   O1 f+1       -0.0231526    0.0000000   -0.0000000   -0.0000000   -0.0000000
 37   O1 f-1       -0.0000000    0.0000000   -0.0000718    0.0000000    0.0000000
 38   O1 f+2        0.0000000    0.0000000    0.0000000   -0.0015374   -0.0006622
 39   O1 f-2        0.0000000    0.0011577   -0.0000000    0.0000000    0.0000000
 40   O1 f+3       -0.0113544    0.0000000   -0.0000000   -0.0000000   -0.0000000
 41   O1 f-3       -0.0000000    0.0000000   -0.0015429    0.0000000    0.0000000
 42   O1 f0         0.0000000    0.0000000    0.0000000   -0.0001300   -0.0002098
 43   O1 f+1        0.1861235   -0.0000000    0.0000000    0.0000000    0.0000000
 44   O1 f-1       -0.0000000    0.0000000   -0.0072875    0.0000000    0.0000000
 45   O1 f+2       -0.0000000   -0.0000000    0.0000000    0.0191497    0.0130256
 46   O1 f-2       -0.0000000   -0.0037689    0.0000000   -0.0000000   -0.0000000
 47   O1 f+3        0.0879599   -0.0000000    0.0000000    0.0000000    0.0000000
 48   O1 f-3       -0.0000000   -0.0000000    0.0136733   -0.0000000    0.0000000
 49   O1 g0         0.0000000   -0.0000000    0.0000000   -0.0007301    0.0004820
 50   O1 g+1        0.0043158    0.0000000   -0.0000000    0.0000000    0.0000000
 51   O1 g-1       -0.0000000   -0.0000000   -0.0011010    0.0000000   -0.0000000
 52   O1 g+2       -0.0000000    0.0000000   -0.0000000    0.0011967    0.0012012
 53   O1 g-2       -0.0000000   -0.0001988    0.0000000    0.0000000   -0.0000000
 54   O1 g+3        0.0144403   -0.0000000    0.0000000    0.0000000    0.0000000
 55   O1 g-3        0.0000000    0.0000000    0.0000571    0.0000000    0.0000000
 56   O1 g+4       -0.0000000   -0.0000000    0.0000000    0.0009492    0.0012310
 57   O1 g-4       -0.0000000    0.0012086    0.0000000   -0.0000000   -0.0000000
 58   H2 s0         0.0356034   -0.0000000    0.0000000   -0.0006804   -0.0102825
 59   H2 s0         1.4792769   -0.0000000    0.0000000    0.0926221    0.0326221
 60   H2 s0        -4.2226993    0.0000000   -0.0000000   -0.6307705   -1.2789411
 61   H2 s0         0.8153825   -0.0000000    0.0000000   -0.0277168   -0.0181560
 62   H2 p0        -0.0284655    0.0000000    0.0000000    0.0213908    0.0037431
 63   H2 p+1       -0.0031096   -0.0000000   -0.0000000   -0.0172395    0.0147314
 64   H2 p-1       -0.0000000   -0.0163407    0.0183197   -0.0000000    0.0000000
 65   H2 p0         0.0824043   -0.0000000   -0.0000000   -0.1418773   -0.0374238
 66   H2 p+1       -0.0446740    0.0000000    0.0000000    0.0990757   -0.0995687
 67   H2 p-1        0.0000000    0.0976016   -0.1068367    0.0000000   -0.0000000
 68   H2 p0         1.1616836   -0.0000000    0.0000000    0.6044098    0.3238691
 69   H2 p+1        1.5179923   -0.0000000    0.0000000   -0.0300602    0.6008929
 70   H2 p-1       -0.0000000   -0.4176033    0.4875324   -0.0000000   -0.0000000
 71   H2 d0         0.0086825   -0.0000000   -0.0000000   -0.0176894    0.0025639
 72   H2 d+1        0.0339592   -0.0000000    0.0000000    0.0061227    0.0056284
 73   H2 d-1       -0.0000000    0.0164466    0.0005709    0.0000000    0.0000000
 74   H2 d+2        0.0124699    0.0000000   -0.0000000    0.0031118   -0.0076401
 75   H2 d-2       -0.0000000    0.0008212   -0.0202713    0.0000000   -0.0000000
 76   H2 d0        -0.1125076    0.0000000    0.0000000    0.1186339   -0.0230213
 77   H2 d+1       -0.3566540    0.0000000   -0.0000000   -0.0488431   -0.0536385
 78   H2 d-1        0.0000000   -0.1108240   -0.0010756    0.0000000   -0.0000000
 79   H2 d+2       -0.1270232   -0.0000000    0.0000000   -0.0308996    0.0466358
 80   H2 d-2       -0.0000000   -0.0074302    0.1346825   -0.0000000    0.0000000
 81   H2 f0        -0.0104309    0.0000000    0.0000000    0.0150648   -0.0043382
 82   H2 f+1        0.0339475   -0.0000000    0.0000000    0.0168300    0.0033658
 83   H2 f-1       -0.0000000   -0.0062327    0.0084754    0.0000000   -0.0000000
 84   H2 f+2        0.0352536   -0.0000000    0.0000000   -0.0030932    0.0046738
 85   H2 f-2       -0.0000000   -0.0149453    0.0146151   -0.0000000   -0.0000000
 86   H2 f+3        0.0183564   -0.0000000    0.0000000   -0.0062262    0.0012193
 87   H2 f-3       -0.0000000   -0.0082989    0.0078934   -0.0000000    0.0000000
 88   H3 s0        -0.0356034    0.0000000   -0.0000000   -0.0006804   -0.0102825
 89   H3 s0        -1.4792769    0.0000000   -0.0000000    0.0926221    0.0326221
 90   H3 s0         4.2226993   -0.0000000    0.0000000   -0.6307705   -1.2789411
 91   H3 s0        -0.8153825    0.0000000   -0.0000000   -0.0277168   -0.0181560
 92   H3 p0         0.0284655   -0.0000000    0.0000000    0.0213908    0.0037431
 93   H3 p+1       -0.0031096    0.0000000    0.0000000    0.0172395   -0.0147314
 94   H3 p-1        0.0000000    0.0163407    0.0183197   -0.0000000   -0.0000000
 95   H3 p0        -0.0824043    0.0000000   -0.0000000   -0.1418773   -0.0374238
 96   H3 p+1       -0.0446740   -0.0000000   -0.0000000   -0.0990757    0.0995687
 97   H3 p-1        0.0000000   -0.0976016   -0.1068367    0.0000000   -0.0000000
 98   H3 p0        -1.1616836    0.0000000    0.0000000    0.6044098    0.3238691
 99   H3 p+1        1.5179923   -0.0000000    0.0000000    0.0300602   -0.6008929
 100  H3 p-1       -0.0000000    0.4176033    0.4875324   -0.0000000    0.0000000
 101  H3 d0        -0.0086825    0.0000000   -0.0000000   -0.0176894    0.0025639
 102  H3 d+1        0.0339592   -0.0000000    0.0000000   -0.0061227   -0.0056284
 103  H3 d-1       -0.0000000   -0.0164466    0.0005709   -0.0000000    0.0000000
 104  H3 d+2       -0.0124699    0.0000000    0.0000000    0.0031118   -0.0076401
 105  H3 d-2       -0.0000000    0.0008212    0.0202713   -0.0000000    0.0000000
 106  H3 d0         0.1125076    0.0000000    0.0000000    0.1186339   -0.0230213
 107  H3 d+1       -0.3566540    0.0000000   -0.0000000    0.0488431    0.0536385
 108  H3 d-1        0.0000000    0.1108240   -0.0010756    0.0000000   -0.0000000
 109  H3 d+2        0.1270232   -0.0000000   -0.0000000   -0.0308996    0.0466358
 110  H3 d-2        0.0000000   -0.0074302   -0.1346825    0.0000000   -0.0000000
 111  H3 f0         0.0104309    0.0000000    0.0000000    0.0150648   -0.0043382
 112  H3 f+1        0.0339475   -0.0000000   -0.0000000   -0.0168300   -0.0033658
 113  H3 f-1       -0.0000000    0.0062327    0.0084754   -0.0000000    0.0000000
 114  H3 f+2       -0.0352536    0.0000000   -0.0000000   -0.0030932    0.0046738
 115  H3 f-2        0.0000000   -0.0149453   -0.0146151    0.0000000   -0.0000000
 116  H3 f+3        0.0183564    0.0000000    0.0000000    0.0062262   -0.0012193
 117  H3 f-3       -0.0000000    0.0082989    0.0078934   -0.0000000   -0.0000000

            Ene     1.2016534    1.3775499    1.4021619    1.4241372    1.5122823
            Sym             A            A            A            A            A
            Occ             0            0            0            0            0


                           26           27           28           29           30

 1    O1 s0         0.0000000   -0.0000000    0.0078586    0.0000000   -0.0000000
 2    O1 s0        -0.0000000   -0.0000000    0.0055900    0.0000000    0.0000000
 3    O1 s0         0.0000000   -0.0000000   -0.0037642    0.0000000    0.0000000
 4    O1 s0        -0.0000000   -0.0000000    0.0513301    0.0000000   -0.0000000
 5    O1 s0         0.0000000    0.0000000   -0.1331570   -0.0000000   -0.0000000
 6    O1 s0        -0.0000000    0.0000000   -0.9559164   -0.0000000    0.0000000
 7    O1 s0        -0.0000000    0.0000000    4.9900145    0.0000000   -0.0000000
 8    O1 p0         0.0000000   -0.0000000   -0.2242262   -0.0000000    0.0000000
 9    O1 p+1        0.0000000    0.2193309   -0.0000000    0.1879026   -0.0000000
 10   O1 p-1        0.2891488   -0.0000000    0.0000000   -0.0000000    0.0104100
 11   O1 p0         0.0000000   -0.0000000   -1.1696658   -0.0000000    0.0000000
 12   O1 p+1        0.0000000    0.9166734   -0.0000000    0.9587976   -0.0000000
 13   O1 p-1        1.1655487   -0.0000000    0.0000000   -0.0000000    0.0539370
 14   O1 p0        -0.0000000    0.0000000    3.6779222    0.0000000   -0.0000000
 15   O1 p+1       -0.0000000   -1.7099199    0.0000000   -3.3708572    0.0000000
 16   O1 p-1       -2.1481363    0.0000000   -0.0000000    0.0000000   -0.0999410
 17   O1 p0         0.0000000   -0.0000000    0.2663661    0.0000000    0.0000000
 18   O1 p+1        0.0000000    1.5243593    0.0000000   -0.2918574    0.0000000
 19   O1 p-1        0.9339370   -0.0000000    0.0000000   -0.0000000    0.0975037
 20   O1 d0        -0.0000000    0.0000000    0.0070152    0.0000000   -0.0000000
 21   O1 d+1        0.0000000    0.0366074    0.0000000   -0.0384840    0.0000000
 22   O1 d-1        0.0065254   -0.0000000    0.0000000    0.0000000    0.0108569
 23   O1 d+2       -0.0000000    0.0000000    0.0297150    0.0000000   -0.0000000
 24   O1 d-2       -0.0000000   -0.0000000    0.0000000    0.0000000    0.0000000
 25   O1 d0         0.0000000   -0.0000000   -0.0162962   -0.0000000    0.0000000
 26   O1 d+1       -0.0000000   -0.0561388   -0.0000000    0.1056264   -0.0000000
 27   O1 d-1       -0.0073695    0.0000000   -0.0000000    0.0000000   -0.0115365
 28   O1 d+2        0.0000000   -0.0000000   -0.0787397   -0.0000000    0.0000000
 29   O1 d-2       -0.0000000    0.0000000   -0.0000000   -0.0000000   -0.0000000
 30   O1 d0        -0.0000000    0.0000000    0.4730412    0.0000000   -0.0000000
 31   O1 d+1        0.0000000    0.7970264    0.0000000   -1.9362254    0.0000000
 32   O1 d-1        0.0957618   -0.0000000    0.0000000    0.0000000    0.2913299
 33   O1 d+2       -0.0000000    0.0000000    1.1280220    0.0000000   -0.0000000
 34   O1 d-2       -0.0000000   -0.0000000    0.0000000    0.0000000    0.0000000
 35   O1 f0        -0.0000000    0.0000000    0.0018860    0.0000000   -0.0000000
 36   O1 f+1        0.0000000    0.0040739   -0.0000000    0.0170375   -0.0000000
 37   O1 f-1        0.0019070   -0.0000000    0.0000000   -0.0000000    0.0089073
 38   O1 f+2        0.0000000   -0.0000000   -0.0160569   -0.0000000    0.0000000
 39   O1 f-2       -0.0000000    0.0000000    0.0000000    0.0000000   -0.0000000
 40   O1 f+3        0.0000000    0.0041515   -0.0000000    0.0083834   -0.0000000
 41   O1 f-3        0.0028344   -0.0000000    0.0000000    0.0000000   -0.0083551
 42   O1 f0         0.0000000   -0.0000000   -0.0032444    0.0000000    0.0000000
 43   O1 f+1       -0.0000000   -0.0185065    0.0000000   -0.1213178    0.0000000
 44   O1 f-1       -0.0052037    0.0000000    0.0000000    0.0000000   -0.0808099
 45   O1 f+2       -0.0000000    0.0000000    0.1006367    0.0000000   -0.0000000
 46   O1 f-2        0.0000000   -0.0000000   -0.0000000    0.0000000   -0.0000000
 47   O1 f+3       -0.0000000   -0.0221485    0.0000000   -0.0570219    0.0000000
 48   O1 f-3       -0.0114937    0.0000000    0.0000000    0.0000000    0.0784325
 49   O1 g0         0.0000000   -0.0000000   -0.0080784   -0.0000000    0.0000000
 50   O1 g+1       -0.0000000   -0.0006444    0.0000000   -0.0059518    0.0000000
 51   O1 g-1        0.0000995   -0.0000000   -0.0000000    0.0000000   -0.0015397
 52   O1 g+2       -0.0000000    0.0000000    0.0147399    0.0000000   -0.0000000
 53   O1 g-2        0.0000000   -0.0000000   -0.0000000    0.0000000    0.0000000
 54   O1 g+3       -0.0000000   -0.0019035    0.0000000   -0.0137405    0.0000000
 55   O1 g-3       -0.0000123   -0.0000000   -0.0000000   -0.0000000    0.0024920
 56   O1 g+4        0.0000000    0.0000000    0.0055306    0.0000000    0.0000000
 57   O1 g-4        0.0000000   -0.0000000   -0.0000000    0.0000000    0.0000000
 58   H2 s0        -0.0000000   -0.0205697   -0.0011189   -0.0044419   -0.0000000
 59   H2 s0         0.0000000   -0.1616754   -0.3110383    0.4505638    0.0000000
 60   H2 s0         0.0000000   -0.1521541   -2.1698274    1.7955049    0.0000000
 61   H2 s0        -0.0000000   -0.6221489   -0.0218329    0.1884596    0.0000000
 62   H2 p0         0.0000000    0.0070586   -0.0243558   -0.0072698    0.0000000
 63   H2 p+1        0.0000000    0.0176038    0.0111411    0.0156560    0.0000000
 64   H2 p-1        0.0153391   -0.0000000   -0.0000000   -0.0000000   -0.0198843
 65   H2 p0        -0.0000000   -0.0383878    0.0491952    0.2097077   -0.0000000
 66   H2 p+1       -0.0000000   -0.1175055   -0.1870498    0.0377939    0.0000000
 67   H2 p-1       -0.1114594    0.0000000    0.0000000    0.0000000    0.1444887
 68   H2 p0         0.0000000    0.2121508    1.2252686   -1.4233949   -0.0000000
 69   H2 p+1        0.0000000    0.2496331    1.3489907   -1.2670121   -0.0000000
 70   H2 p-1        0.0678402   -0.0000000   -0.0000000   -0.0000000   -0.1155339
 71   H2 d0         0.0000000    0.0041925    0.0139634    0.0043836   -0.0000000
 72   H2 d+1       -0.0000000   -0.0075219    0.0229951   -0.0243626    0.0000000
 73   H2 d-1       -0.0068657    0.0000000    0.0000000    0.0000000    0.0692538
 74   H2 d+2       -0.0000000    0.0007562   -0.0037922   -0.0140683   -0.0000000
 75   H2 d-2       -0.0020115    0.0000000   -0.0000000    0.0000000   -0.0729837
 76   H2 d0         0.0000000   -0.0258830   -0.1349616    0.0290646    0.0000000
 77   H2 d+1        0.0000000    0.0693040   -0.3045737    0.3624632   -0.0000000
 78   H2 d-1        0.0458237   -0.0000000   -0.0000000   -0.0000000   -0.5015499
 79   H2 d+2        0.0000000    0.0037081   -0.0430514    0.1935786    0.0000000
 80   H2 d-2        0.0134558   -0.0000000    0.0000000   -0.0000000    0.5109707
 81   H2 f0        -0.0000000   -0.0043246   -0.0162997    0.0042640    0.0000000
 82   H2 f+1       -0.0000000   -0.0076739    0.0307351   -0.0461003   -0.0000000
 83   H2 f-1        0.0058988   -0.0000000    0.0000000    0.0000000   -0.0015447
 84   H2 f+2       -0.0000000    0.0016582    0.0367657   -0.0399760   -0.0000000
 85   H2 f-2        0.0127457   -0.0000000   -0.0000000    0.0000000    0.0010693
 86   H2 f+3       -0.0000000    0.0034169    0.0135013   -0.0139710   -0.0000000
 87   H2 f-3        0.0077412   -0.0000000   -0.0000000   -0.0000000   -0.0075112
 88   H3 s0         0.0000000    0.0205697   -0.0011189    0.0044419   -0.0000000
 89   H3 s0         0.0000000    0.1616754   -0.3110383   -0.4505638    0.0000000
 90   H3 s0         0.0000000    0.1521541   -2.1698274   -1.7955049    0.0000000
 91   H3 s0         0.0000000    0.6221489   -0.0218329   -0.1884596    0.0000000
 92   H3 p0        -0.0000000   -0.0070586   -0.0243558    0.0072698   -0.0000000
 93   H3 p+1        0.0000000    0.0176038   -0.0111411    0.0156560   -0.0000000
 94   H3 p-1        0.0153391   -0.0000000   -0.0000000    0.0000000   -0.0198843
 95   H3 p0         0.0000000    0.0383878    0.0491952   -0.2097077    0.0000000
 96   H3 p+1       -0.0000000   -0.1175055    0.1870498    0.0377939    0.0000000
 97   H3 p-1       -0.1114594    0.0000000    0.0000000   -0.0000000    0.1444887
 98   H3 p0        -0.0000000   -0.2121508    1.2252686    1.4233949   -0.0000000
 99   H3 p+1        0.0000000    0.2496331   -1.3489907   -1.2670121    0.0000000
 100  H3 p-1        0.0678402   -0.0000000   -0.0000000    0.0000000   -0.1155339
 101  H3 d0        -0.0000000   -0.0041925    0.0139634   -0.0043836   -0.0000000
 102  H3 d+1       -0.0000000   -0.0075219   -0.0229951   -0.0243626   -0.0000000
 103  H3 d-1       -0.0068657    0.0000000    0.0000000    0.0000000    0.0692538
 104  H3 d+2        0.0000000   -0.0007562   -0.0037922    0.0140683   -0.0000000
 105  H3 d-2        0.0020115   -0.0000000    0.0000000    0.0000000    0.0729837
 106  H3 d0        -0.0000000    0.0258830   -0.1349616   -0.0290646    0.0000000
 107  H3 d+1        0.0000000    0.0693040    0.3045737    0.3624632    0.0000000
 108  H3 d-1        0.0458237   -0.0000000   -0.0000000   -0.0000000   -0.5015499
 109  H3 d+2       -0.0000000   -0.0037081   -0.0430514   -0.1935786    0.0000000
 110  H3 d-2       -0.0134558    0.0000000   -0.0000000   -0.0000000   -0.5109707
 111  H3 f0         0.0000000    0.0043246   -0.0162997   -0.0042640    0.0000000
 112  H3 f+1       -0.0000000   -0.0076739   -0.0307351   -0.0461003    0.0000000
 113  H3 f-1        0.0058988   -0.0000000   -0.0000000    0.0000000   -0.0015447
 114  H3 f+2        0.0000000   -0.0016582    0.0367657    0.0399760   -0.0000000
 115  H3 f-2       -0.0127457    0.0000000   -0.0000000   -0.0000000   -0.0010693
 116  H3 f+3        0.0000000    0.0034169   -0.0135013   -0.0139710    0.0000000
 117  H3 f-3        0.0077412   -0.0000000   -0.0000000    0.0000000   -0.0075112

            Ene     1.6070630    1.6143733    1.8877465    1.9059311    1.9744844
            Sym             A            A            A            A            A
            Occ             0            0            0            0            0


                           31           32           33           34           35

 1    O1 s0         0.0045416    0.0000000    0.0000000    0.0000000    0.0000000
 2    O1 s0         0.0005502    0.0000000   -0.0000000    0.0000000   -0.0000000
 3    O1 s0         0.0071537    0.0000000    0.0000000   -0.0000000    0.0000000
 4    O1 s0        -0.0003445   -0.0000000   -0.0000000    0.0000000   -0.0000000
 5    O1 s0        -0.0018988    0.0000000   -0.0000000   -0.0000000    0.0000000
 6    O1 s0        -0.0957320   -0.0000000    0.0000000    0.0000000   -0.0000000
 7    O1 s0         0.2356984    0.0000000   -0.0000000   -0.0000000   -0.0000000
 8    O1 p0         0.0051391   -0.0000000   -0.0000000   -0.0000000   -0.0000000
 9    O1 p+1        0.0000000    0.0287780   -0.0000000    0.0000000    0.0537865
 10   O1 p-1        0.0000000   -0.0000000    0.0000000   -0.0000000   -0.0000000
 11   O1 p0         0.1213102   -0.0000000   -0.0000000    0.0000000   -0.0000000
 12   O1 p+1        0.0000000    0.2579989    0.0000000    0.0000000    0.0892384
 13   O1 p-1        0.0000000   -0.0000000    0.0000000    0.0000000    0.0000000
 14   O1 p0        -0.3250146    0.0000000   -0.0000000    0.0000000   -0.0000000
 15   O1 p+1       -0.0000000   -0.8190943   -0.0000000   -0.0000000   -0.6119370
 16   O1 p-1       -0.0000000    0.0000000   -0.0000000   -0.0000000   -0.0000000
 17   O1 p0         0.2489940    0.0000000   -0.0000000   -0.0000000    0.0000000
 18   O1 p+1        0.0000000   -0.0413379    0.0000000    0.0000000    0.1955658
 19   O1 p-1       -0.0000000    0.0000000   -0.0000000   -0.0000000    0.0000000
 20   O1 d0        -0.0154548    0.0000000    0.0000000    0.0000000   -0.0000000
 21   O1 d+1       -0.0000000   -0.0017910    0.0000000    0.0000000    0.0155033
 22   O1 d-1       -0.0000000    0.0000000   -0.0000000   -0.0000000   -0.0000000
 23   O1 d+2       -0.0050733    0.0000000    0.0000000   -0.0000000    0.0000000
 24   O1 d-2        0.0000000   -0.0000000    0.0006984    0.0210138   -0.0000000
 25   O1 d0         0.0661739    0.0000000   -0.0000000   -0.0000000    0.0000000
 26   O1 d+1        0.0000000    0.0111589    0.0000000   -0.0000000   -0.0889972
 27   O1 d-1        0.0000000   -0.0000000    0.0000000   -0.0000000    0.0000000
 28   O1 d+2       -0.0153750   -0.0000000    0.0000000    0.0000000   -0.0000000
 29   O1 d-2       -0.0000000   -0.0000000    0.0303722   -0.0719657    0.0000000
 30   O1 d0        -0.3888558    0.0000000    0.0000000    0.0000000   -0.0000000
 31   O1 d+1       -0.0000000   -0.1381344   -0.0000000    0.0000000    0.0314557
 32   O1 d-1       -0.0000000    0.0000000   -0.0000000   -0.0000000   -0.0000000
 33   O1 d+2       -0.1441278    0.0000000    0.0000000   -0.0000000    0.0000000
 34   O1 d-2        0.0000000   -0.0000000    0.1113094    0.4711247   -0.0000000
 35   O1 f0        -0.0023564   -0.0000000   -0.0000000    0.0000000   -0.0000000
 36   O1 f+1        0.0000000    0.0007682    0.0000000    0.0000000    0.0080746
 37   O1 f-1       -0.0000000    0.0000000   -0.0000000   -0.0000000   -0.0000000
 38   O1 f+2       -0.0044252    0.0000000    0.0000000   -0.0000000    0.0000000
 39   O1 f-2       -0.0000000    0.0000000   -0.0057075    0.0128465   -0.0000000
 40   O1 f+3       -0.0000000   -0.0063093   -0.0000000   -0.0000000   -0.0035382
 41   O1 f-3        0.0000000   -0.0000000    0.0000000    0.0000000    0.0000000
 42   O1 f0         0.0564888    0.0000000   -0.0000000   -0.0000000    0.0000000
 43   O1 f+1        0.0000000   -0.0280380   -0.0000000   -0.0000000   -0.1528041
 44   O1 f-1        0.0000000   -0.0000000    0.0000000    0.0000000    0.0000000
 45   O1 f+2        0.0280326   -0.0000000   -0.0000000    0.0000000   -0.0000000
 46   O1 f-2       -0.0000000   -0.0000000    0.0689901   -0.1641205    0.0000000
 47   O1 f+3        0.0000000    0.0764142    0.0000000    0.0000000    0.0311699
 48   O1 f-3       -0.0000000    0.0000000   -0.0000000   -0.0000000    0.0000000
 49   O1 g0         0.0014949    0.0000000    0.0000000   -0.0000000    0.0000000
 50   O1 g+1        0.0000000    0.0095407    0.0000000   -0.0000000   -0.0032090
 51   O1 g-1        0.0000000    0.0000000    0.0000000    0.0000000   -0.0000000
 52   O1 g+2       -0.0039525   -0.0000000   -0.0000000   -0.0000000   -0.0000000
 53   O1 g-2       -0.0000000   -0.0000000    0.0036289    0.0017385   -0.0000000
 54   O1 g+3       -0.0000000   -0.0024072   -0.0000000    0.0000000    0.0015632
 55   O1 g-3       -0.0000000    0.0000000   -0.0000000   -0.0000000    0.0000000
 56   O1 g+4        0.0025371   -0.0000000   -0.0000000    0.0000000   -0.0000000
 57   O1 g-4       -0.0000000    0.0000000   -0.0010929   -0.0002659    0.0000000
 58   H2 s0        -0.0055645   -0.0051996   -0.0000000    0.0000000    0.0113912
 59   H2 s0         0.3180902   -0.0959466   -0.0000000    0.0000000    0.0542565
 60   H2 s0        -0.4557199    0.5333604    0.0000000    0.0000000    0.0961845
 61   H2 s0         0.1109729   -0.0202226   -0.0000000    0.0000000    0.2579244
 62   H2 p0        -0.0066227   -0.0114069    0.0000000    0.0000000    0.0461334
 63   H2 p+1        0.0209788    0.0126377    0.0000000   -0.0000000   -0.1189207
 64   H2 p-1        0.0000000    0.0000000   -0.0668143    0.1065788   -0.0000000
 65   H2 p0         0.0519173    0.0880473   -0.0000000   -0.0000000   -0.2985268
 66   H2 p+1       -0.0628889   -0.0832328   -0.0000000    0.0000000    0.9755598
 67   H2 p-1       -0.0000000   -0.0000000    0.4776165   -0.7953364    0.0000000
 68   H2 p0         0.0084974   -0.2985492   -0.0000000    0.0000000    0.0196460
 69   H2 p+1        0.0395229   -0.1894470   -0.0000000   -0.0000000   -0.9068094
 70   H2 p-1        0.0000000    0.0000000   -0.2832193    0.3887604   -0.0000000
 71   H2 d0        -0.0123341   -0.0731360   -0.0000000   -0.0000000   -0.0273719
 72   H2 d+1        0.0423161    0.0479021    0.0000000   -0.0000000   -0.0240060
 73   H2 d-1       -0.0000000    0.0000000   -0.0543850   -0.0639406    0.0000000
 74   H2 d+2       -0.0897054   -0.0420140   -0.0000000    0.0000000    0.0067941
 75   H2 d-2        0.0000000   -0.0000000    0.0682825    0.0003064   -0.0000000
 76   H2 d0         0.0822897    0.5759385    0.0000000    0.0000000    0.2580355
 77   H2 d+1       -0.2861703   -0.3565628   -0.0000000    0.0000000    0.1961164
 78   H2 d-1        0.0000000   -0.0000000    0.4128247    0.5315450   -0.0000000
[...]
  114    -0.00000081206888     0.00000272428731    -0.00000000000000    -0.00000235258116     0.00000000000000
  115    -0.00000000000000     0.00000000000000     0.00000145482504     0.00000000000000    -0.00000178835261
  116    -0.00000011734523    -0.00000150477318    -0.00000000000000     0.00000187124478     0.00000000000000
  117     0.00000000000000    -0.00000000000000    -0.00000104571998    -0.00000000000000     0.00000128545770

               111                 112                 113                 114                 115

    1     0.00001117731373     0.00001447804103     0.00000000000000    -0.00002705815889    -0.00000000000000
    2     0.00000033522631    -0.00000335301132     0.00000000000000     0.00000128758140    -0.00000000000000
    3     0.00000840390860    -0.00000361682831     0.00000000000000    -0.00001233329918    -0.00000000000000
    4     0.00000413072513    -0.00000235635532     0.00000000000000    -0.00000569618126    -0.00000000000000
    5    -0.00000830824014     0.00005546205943    -0.00000000000000    -0.00001699406071     0.00000000000000
    6    -0.00000885424597     0.00009511857251    -0.00000000000000    -0.00003755484380     0.00000000000000
    7    -0.00002808447546     0.00004181980036    -0.00000000000000     0.00002147825681     0.00000000000000
    8     0.00007220121133     0.00000693763382     0.00000000000000    -0.00011715540221    -0.00000000000000
    9     0.00004393720046    -0.00019338888638     0.00000000000000     0.00012037471151    -0.00000000000000
   10     0.00000000000000     0.00000000000000     0.00009636169739     0.00000000000000    -0.00018269160815
   11     0.00007270997241     0.00000775861528    -0.00000000000000    -0.00011838931577    -0.00000000000000
   12     0.00004384511724    -0.00019298358359     0.00000000000000     0.00012012243121    -0.00000000000000
   13     0.00000000000000     0.00000000000000     0.00009375695426     0.00000000000000    -0.00017775329008
   14     0.00006739131098     0.00000806970491    -0.00000000000000    -0.00011021035566    -0.00000000000000
   15     0.00004260660539    -0.00018753229344     0.00000000000000     0.00011672928132    -0.00000000000000
   16     0.00000000000000     0.00000000000000     0.00008892710260     0.00000000000000    -0.00016859640108
   17     0.00003459868302     0.00000274637980     0.00000000000000    -0.00005582513799    -0.00000000000000
   18     0.00001796342346    -0.00007906572157     0.00000000000000     0.00004921437629    -0.00000000000000
   19     0.00000000000000     0.00000000000000     0.00004775637862     0.00000000000000    -0.00009054105361
   20     0.00000042675489    -0.00000000431500     0.00000000000000    -0.00000066803864    -0.00000000000000
   21     0.00000038343672    -0.00000168769061     0.00000000000000     0.00000105050127    -0.00000000000000
   22     0.00000000000000     0.00000000000000     0.00000039462742     0.00000000000000    -0.00000074817193
   23     0.00000017557532    -0.00000006572069     0.00000000000000    -0.00000024033707     0.00000000000000
   24     0.00000000000000     0.00000000000000     0.00000000000000    -0.00000000000000    -0.00000000000000
   25     0.00000159850421     0.00000026550304    -0.00000000000000    -0.00000265354008    -0.00000000000000
   26     0.00000195598893    -0.00000860925405     0.00000000000000     0.00000535882124    -0.00000000000000
   27     0.00000000000000     0.00000000000000     0.00000109102858     0.00000000000000    -0.00000206847504
   28     0.00000103540881     0.00000037370543    -0.00000000000000    -0.00000182741524    -0.00000000000000
   29    -0.00000000000000    -0.00000000000000    -0.00000000000000     0.00000000000000     0.00000000000000
   30     0.00000373906738     0.00000060865623    -0.00000000000000    -0.00000620192174    -0.00000000000000
   31     0.00000390256538    -0.00001717707922     0.00000000000000     0.00001069185512    -0.00000000000000
   32     0.00000000000000     0.00000000000000     0.00000307839137     0.00000000000000    -0.00000583630515
   33     0.00000196343131     0.00000056235111    -0.00000000000000    -0.00000338777943    -0.00000000000000
   34     0.00000000000000    -0.00000000000000     0.00000000000000    -0.00000000000000    -0.00000000000000
   35     0.00000009479338     0.00000000166434    -0.00000000000000    -0.00000014973188     0.00000000000000
   36     0.00000008140374    -0.00000035829725     0.00000000000000     0.00000022302175     0.00000000000000
   37     0.00000000000000     0.00000000000000     0.00000019384678     0.00000000000000    -0.00000036751303
   38     0.00000023696314     0.00000002713481     0.00000000000000    -0.00000038692502    -0.00000000000000
   39    -0.00000000000000    -0.00000000000000    -0.00000000000000     0.00000000000000     0.00000000000000
   40     0.00000011943703    -0.00000052570020     0.00000000000000     0.00000032722154     0.00000000000000
   41     0.00000000000000     0.00000000000000     0.00000023678834     0.00000000000000    -0.00000044892570
   42     0.00000041322914    -0.00000004341950     0.00000000000000    -0.00000062564710    -0.00000000000000
   43     0.00000045976676    -0.00000202365604     0.00000000000000     0.00000125962260    -0.00000000000000
   44     0.00000000000000     0.00000000000000     0.00000068076177     0.00000000000000    -0.00000129065247
   45     0.00000098593985     0.00000048799705    -0.00000000000000    -0.00000181223515    -0.00000000000000
   46     0.00000000000000    -0.00000000000000     0.00000000000000     0.00000000000000    -0.00000000000000
   47     0.00000057955359    -0.00000255089589     0.00000000000000     0.00000158780250    -0.00000000000000
   48     0.00000000000000     0.00000000000000     0.00000087927371     0.00000000000000    -0.00000166701015
   49    -0.00000001433463    -0.00000003067203     0.00000000000000     0.00000003905588     0.00000000000000
   50     0.00000000730148    -0.00000003213733    -0.00000000000000     0.00000002000385     0.00000000000000
   51     0.00000000000000     0.00000000000000     0.00000001792314     0.00000000000000    -0.00000003398039
   52     0.00000009988392     0.00000006469603    -0.00000000000000    -0.00000019179289    -0.00000000000000
   53    -0.00000000000000     0.00000000000000    -0.00000000000000    -0.00000000000000     0.00000000000000
   54     0.00000007052503    -0.00000031041479     0.00000000000000     0.00000019321736     0.00000000000000
   55     0.00000000000000     0.00000000000000     0.00000005128755     0.00000000000000    -0.00000009723579
   56     0.00000002706557     0.00000001621147    -0.00000000000000    -0.00000005124622     0.00000000000000
   57    -0.00000000000000     0.00000000000000    -0.00000000000000    -0.00000000000000     0.00000000000000
   58     0.00002479961602    -0.00003700581675     0.00000000000000    -0.00000068039548    -0.00000000000000
   59     0.00005141321781    -0.00007691730280     0.00000000000000    -0.00000122325755    -0.00000000000000
   60     0.00007709271923    -0.00011906275691     0.00000000000000    -0.00000040303196    -0.00000000000000
   61     0.00002422604078    -0.00004546492112     0.00000000000000     0.00000725540025    -0.00000000000000
   62    -0.00000022962806     0.00000096708242     0.00000000000000    -0.00000064764785     0.00000000000000
   63    -0.00000052783967     0.00000029486121     0.00000000000000     0.00000045437803     0.00000000000000
   64     0.00000000000000     0.00000000000000     0.00000035614182     0.00000000000000    -0.00000067520729
   65    -0.00000285204229     0.00000464249548     0.00000000000000    -0.00000055991361     0.00000000000000
   66    -0.00000285595091     0.00000165194319     0.00000000000000     0.00000235581676     0.00000000000000
   67     0.00000000000000     0.00000000000000     0.00000096910897     0.00000000000000    -0.00000183732833
   68    -0.00000311009475     0.00001316538368    -0.00000000000000    -0.00000835162203     0.00000000000000
   69    -0.00000834256213     0.00000476758317     0.00000000000000     0.00000778085834     0.00000000000000
   70     0.00000000000000     0.00000000000000     0.00000513789390     0.00000000000000    -0.00000974090458
   71     0.00000004953703    -0.00000019139553    -0.00000000000000     0.00000011995517     0.00000000000000
   72     0.00000024725696    -0.00000033403633    -0.00000000000000    -0.00000001477353     0.00000000000000
   73    -0.00000000000000     0.00000000000000    -0.00000004839545    -0.00000000000000     0.00000009175267
   74     0.00000005578615    -0.00000003292824    -0.00000000000000    -0.00000003324268     0.00000000000000
   75    -0.00000000000000    -0.00000000000000    -0.00000001508785     0.00000000000000     0.00000002860497
   76     0.00000014501996    -0.00000196947270     0.00000000000000     0.00000173368710    -0.00000000000000
   77     0.00000122577184    -0.00000191145347    -0.00000000000000     0.00000010407635    -0.00000000000000
   78    -0.00000000000000    -0.00000000000000    -0.00000076735550    -0.00000000000000     0.00000145482504
   79     0.00000129934933    -0.00000038953692    -0.00000000000000    -0.00000154642136    -0.00000000000000
   80    -0.00000000000000    -0.00000000000000    -0.00000094327646    -0.00000000000000     0.00000178835261
   81     0.00000005053648     0.00000014104940    -0.00000000000000    -0.00000021026351     0.00000000000000
   82    -0.00000014104940     0.00000050902023    -0.00000000000000    -0.00000029368052     0.00000000000000
   83     0.00000000000000     0.00000000000000     0.00000007174737     0.00000000000000    -0.00000013602545
   84    -0.00000021026351     0.00000029368052    -0.00000000000000     0.00000002214585     0.00000000000000
   85     0.00000000000000     0.00000000000000     0.00000013602545     0.00000000000000    -0.00000025788989
   86    -0.00000014118060     0.00000006104741    -0.00000000000000     0.00000014830717     0.00000000000000
   87     0.00000000000000     0.00000000000000     0.00000009777432     0.00000000000000    -0.00000018536979
   88     0.00000587948329     0.00004627084540    -0.00000000000000    -0.00005251586736    -0.00000000000000
   89     0.00001210575959     0.00009609384707    -0.00000000000000    -0.00010891386813    -0.00000000000000
   90     0.00001875979115     0.00013768869482    -0.00000000000000    -0.00016021770648    -0.00000000000000
   91     0.00000275716388     0.00004902999785    -0.00000000000000    -0.00005156286393    -0.00000000000000
   92     0.00000027310146    -0.00000124567353     0.00000000000000     0.00000072967980    -0.00000000000000
   93     0.00000030497850     0.00000068605868    -0.00000000000000    -0.00000106495060    -0.00000000000000
   94     0.00000000000000     0.00000000000000     0.00000035614182     0.00000000000000    -0.00000067520729
   95    -0.00000023077541    -0.00000689496886     0.00000000000000     0.00000662156909     0.00000000000000
   96     0.00000157403399     0.00000399039368    -0.00000000000000    -0.00000586788349    -0.00000000000000
   97     0.00000000000000     0.00000000000000     0.00000096910897     0.00000000000000    -0.00000183732833
   98     0.00000322864452    -0.00001473447604     0.00000000000000     0.00000901461668     0.00000000000000
   99     0.00000549918671     0.00000774748834    -0.00000000000000    -0.00001557085161    -0.00000000000000
  100     0.00000000000000     0.00000000000000     0.00000513789390     0.00000000000000    -0.00000974090458
  101    -0.00000004810923     0.00000023839295    -0.00000000000000    -0.00000014756622     0.00000000000000
  102    -0.00000004735859    -0.00000054581317     0.00000000000000     0.00000056243494    -0.00000000000000
  103     0.00000000000000    -0.00000000000000    -0.00000004839545    -0.00000000000000     0.00000009175267
  104     0.00000001790315     0.00000013381320    -0.00000000000000    -0.00000013703071    -0.00000000000000
  105     0.00000000000000    -0.00000000000000     0.00000001508785     0.00000000000000    -0.00000002860497
  106    -0.00000078419008     0.00000212043048    -0.00000000000000    -0.00000081206888    -0.00000000000000
  107    -0.00000019340898    -0.00000263247517     0.00000000000000     0.00000272428731     0.00000000000000
  108    -0.00000000000000    -0.00000000000000    -0.00000076735550    -0.00000000000000     0.00000145482504
  109     0.00000100509812     0.00000090560509    -0.00000000000000    -0.00000235258116     0.00000000000000
  110     0.00000000000000     0.00000000000000     0.00000094327646     0.00000000000000    -0.00000178835261
  111     0.00000010707446    -0.00000010780161     0.00000000000000    -0.00000005536646    -0.00000000000000
  112    -0.00000010780161     0.00000058629353    -0.00000000000000    -0.00000038809639    -0.00000000000000
  113     0.00000000000000    -0.00000000000000     0.00000007174737     0.00000000000000    -0.00000013602545
  114    -0.00000005536646    -0.00000038809639     0.00000000000000     0.00000044651718    -0.00000000000000
  115    -0.00000000000000    -0.00000000000000    -0.00000013602545    -0.00000000000000     0.00000025788989
  116     0.00000009920951     0.00000012368767    -0.00000000000000    -0.00000026329533    -0.00000000000000
  117     0.00000000000000     0.00000000000000     0.00000009777432     0.00000000000000    -0.00000018536979

               116                 117

    1     0.00001333894408     0.00000000000000
    2    -0.00000013412085     0.00000000000000
    3     0.00000788585172     0.00000000000000
    4     0.00000395761066     0.00000000000000
    5    -0.00000202283486    -0.00000000000000
    6     0.00000478316695    -0.00000000000000
    7    -0.00003390627586    -0.00000000000000
    8     0.00010870927626    -0.00000000000000
    9    -0.00003261687390     0.00000000000000
   10    -0.00000000000000     0.00013131769055
   11     0.00010965469585    -0.00000000000000
   12    -0.00003254851573     0.00000000000000
   13    -0.00000000000000     0.00012776805556
   14     0.00010177871042    -0.00000000000000
   15    -0.00003162910383     0.00000000000000
   16    -0.00000000000000     0.00012118613574
   17     0.00005199399572    -0.00000000000000
   18    -0.00001333518548     0.00000000000000
   19    -0.00000000000000     0.00006508039521
   20     0.00000063364096    -0.00000000000000
   21    -0.00000028464506     0.00000000000000
   22    -0.00000000000000     0.00000053778174
   23     0.00000024830133    -0.00000000000000
   24     0.00000000000000     0.00000000000000
   25     0.00000243069573    -0.00000000000000
   26    -0.00000145203253     0.00000000000000
   27     0.00000000000000     0.00000148680811
   28     0.00000161439890    -0.00000000000000
   29    -0.00000000000000    -0.00000000000000
   30     0.00000567712747    -0.00000000000000
   31    -0.00000289707768     0.00000000000000
   32    -0.00000000000000     0.00000419510300
   33     0.00000302786944    -0.00000000000000
   34     0.00000000000000     0.00000000000000
   35     0.00000014151695    -0.00000000000000
   36    -0.00000006043024    -0.00000000000000
   37     0.00000000000000     0.00000026416628
   38     0.00000035738578    -0.00000000000000
   39    -0.00000000000000    -0.00000000000000
   40    -0.00000008866434    -0.00000000000000
   41     0.00000000000000     0.00000032268524
   42     0.00000060610743     0.00000000000000
   43    -0.00000034130883     0.00000000000000
   44     0.00000000000000     0.00000092771367
   45     0.00000155992387    -0.00000000000000
   46    -0.00000000000000     0.00000000000000
   47    -0.00000043023284     0.00000000000000
   48     0.00000000000000     0.00000119823743
   49    -0.00000002730340    -0.00000000000000
   50    -0.00000000542027    -0.00000000000000
   51     0.00000000000000     0.00000002442491
   52     0.00000016111707    -0.00000000000000
   53    -0.00000000000000    -0.00000000000000
   54    -0.00000005235440    -0.00000000000000
   55     0.00000000000000     0.00000006989253
   56     0.00000004344572    -0.00000000000000
   57     0.00000000000000    -0.00000000000000
   58     0.00001667320087    -0.00000000000000
   59     0.00003446805311    -0.00000000000000
   60     0.00005140745010    -0.00000000000000
   61     0.00001244050543     0.00000000000000
   62     0.00000019189904    -0.00000000000000
   63    -0.00000057428701     0.00000000000000
   64     0.00000000000000     0.00000048533517
   65    -0.00000153065029     0.00000000000000
   66    -0.00000303854964     0.00000000000000
   67    -0.00000000000000     0.00000132066117
   68     0.00000229336684    -0.00000000000000
   69    -0.00000952225988     0.00000000000000
   70    -0.00000000000000     0.00000700170690
   71    -0.00000003064136    -0.00000000000000
   72     0.00000016509578    -0.00000000000000
   73     0.00000000000000    -0.00000006595130
   74     0.00000005035174    -0.00000000000000
   75    -0.00000000000000    -0.00000002056109
   76    -0.00000080714628     0.00000000000000
   77     0.00000073839642    -0.00000000000000
   78    -0.00000000000000    -0.00000104571998
   79     0.00000165280677    -0.00000000000000
   80    -0.00000000000000    -0.00000128545770
   81     0.00000014118060    -0.00000000000000
   82     0.00000006104741    -0.00000000000000
   83     0.00000000000000     0.00000009777432
   84    -0.00000014830717    -0.00000000000000
   85     0.00000000000000     0.00000018536979
   86    -0.00000016885968     0.00000000000000
   87    -0.00000000000000     0.00000013324275
   88     0.00003071860151    -0.00000000000000
   89     0.00006364802805    -0.00000000000000
   90     0.00009471102292    -0.00000000000000
   91     0.00002837797172    -0.00000000000000
   92    -0.00000018130329     0.00000000000000
   93     0.00000073972847     0.00000000000000
   94    -0.00000000000000     0.00000048533517
   95    -0.00000347655331     0.00000000000000
   96     0.00000399018338    -0.00000000000000
   97    -0.00000000000000     0.00000132066117
   98    -0.00000241220970    -0.00000000000000
   99     0.00001163304565    -0.00000000000000
  100    -0.00000000000000     0.00000700170690
  101     0.00000004184655    -0.00000000000000
  102    -0.00000031349076     0.00000000000000
  103     0.00000000000000    -0.00000006595130
  104     0.00000007847426     0.00000000000000
  105    -0.00000000000000     0.00000002056109
  106    -0.00000011734523     0.00000000000000
  107    -0.00000150477318    -0.00000000000000
  108    -0.00000000000000    -0.00000104571998
  109     0.00000187124478    -0.00000000000000
  110     0.00000000000000     0.00000128545770
  111     0.00000009920951     0.00000000000000
  112     0.00000012368767     0.00000000000000
  113    -0.00000000000000     0.00000009777432
  114    -0.00000026329533     0.00000000000000
  115    -0.00000000000000    -0.00000018536979
  116     0.00000020001701    -0.00000000000000
  117    -0.00000000000000     0.00000013324275




Reading options from the SYSHFWPLUG block
Calling plugin syshfwplug.so.


    Molecular point group: c1
    Full point group: C2v

    Geometry (in Angstrom), charge = 0, multiplicity = 1:

       Center              X                  Y                   Z               Mass       
    ------------   -----------------  -----------------  -----------------  -----------------
           O          0.000000000000     0.000000000000    -0.111914873272    15.994914619560
           H          1.000000000000     0.000000000000     0.888085126728     1.007825032070
           H         -1.000000000000     0.000000000000     0.888085126728     1.007825032070


    Nuclear repulsion energy:       6.25154529


*** Psi4 exiting successfully. Buy a developer a beer!
